   27   27  100    1
  0.9710400E+02  0.1002848E-08  0.1002848E-08  0.3000000E-08  0.5000000E-15
  1.000000000000000E-004
  CAR 
 unknown system                          
    162     34    128
 
  0.0000000E+00  0.0000000E+00  0.0000000E+00  0.1562500E-01
    1      -18.122828   1.000000
    2      -16.927355   1.000000
    3      -16.528409   1.000000
    4      -16.528130   1.000000
    5      -16.528043   1.000000
    6      -16.527547   1.000000
    7      -16.527322   1.000000
    8      -16.527136   1.000000
    9      -15.955327   1.000000
   10      -15.955022   1.000000
   11      -15.954929   1.000000
   12      -15.954497   1.000000
   13      -15.954362   1.000000
   14      -15.954107   1.000000
   15      -15.310950   1.000000
   16      -15.310912   1.000000
   17      -15.310848   1.000000
   18      -15.310816   1.000000
   19       -9.040662   1.000000
   20       -8.464064   1.000000
   21       -8.463937   1.000000
   22       -8.463831   1.000000
   23       -8.463461   1.000000
   24       -8.463422   1.000000
   25       -8.463217   1.000000
   26       -8.400585   1.000000
   27       -8.400525   1.000000
   28       -8.400510   1.000000
   29       -8.400469   1.000000
   30       -8.333909   1.000000
   31       -8.333700   1.000000
   32       -7.935349   1.000000
   33       -7.935204   1.000000
   34       -7.935128   1.000000
   35       -7.934833   1.000000
   36       -7.934694   1.000000
   37       -7.934571   1.000000
   38       -7.385636   1.000000
   39       -7.385395   1.000000
   40       -7.385307   1.000000
   41       -7.384777   1.000000
   42       -7.384537   1.000000
   43       -7.384396   1.000000
   44       -6.966547   1.000000
   45       -6.966365   1.000000
   46       -6.282699   1.000000
   47       -6.282608   1.000000
   48       -6.282444   1.000000
   49       -6.282399   1.000000
   50       -6.038247   1.000000
   51       -6.037885   1.000000
   52       -6.037552   1.000000
   53       -6.037231   1.000000
   54       -6.037028   1.000000
   55       -6.036578   1.000000
   56       -5.970743   1.000000
   57       -5.970280   1.000000
   58       -5.623383   1.000000
   59       -5.434731   1.000000
   60       -5.434612   1.000000
   61       -5.434338   1.000000
   62       -5.434105   1.000000
   63       -5.433781   1.000000
   64       -5.433776   1.000000
   65       -4.414437   1.000000
   66       -4.414274   1.000000
   67       -4.413810   1.000000
   68       -4.413585   1.000000
   69       -4.413312   1.000000
   70       -4.413185   1.000000
   71       -4.228968   1.000000
   72       -4.228761   1.000000
   73       -4.228673   1.000000
   74       -4.228295   1.000000
   75       -4.228078   1.000000
   76       -4.227979   1.000000
   77       -3.732427   1.000000
   78       -3.732068   1.000000
   79       -3.608130   1.000000
   80       -2.642626   0.051272
   81       -2.642548   0.051214
   82       -2.642319   0.051044
   83       -2.642294   0.051026
   84       -2.617944   0.035368
   85       -2.617635   0.035198
   86       -2.434833   0.000961
   87       -2.434340   0.000950
   88       -2.434198   0.000947
   89       -2.433804   0.000938
   90       -2.433704   0.000936
   91       -2.433147   0.000923
   92       -2.326511   0.000055
   93       -2.326422   0.000055
   94       -2.326193   0.000054
   95       -2.325985   0.000054
   96       -2.325817   0.000054
   97       -2.325487   0.000053
   98       -2.306997   0.000031
   99       -2.306393   0.000030
  100       -0.823238   0.000000
  101       -0.823159   0.000000
  102       -0.823116   0.000000
  103       -0.822995   0.000000
  104       -0.644107   0.000000
  105       -0.643934   0.000000
  106       -0.643818   0.000000
  107       -0.643671   0.000000
  108       -0.643535   0.000000
  109       -0.643440   0.000000
  110       -0.258974   0.000000
  111       -0.258726   0.000000
  112       -0.258585   0.000000
  113       -0.258379   0.000000
  114       -0.258333   0.000000
  115       -0.257981   0.000000
  116        0.109474   0.000000
  117        0.109629   0.000000
  118        1.699830   0.000000
  119        1.855831   0.000000
  120        2.221732   0.000000
  121        2.575107   0.000000
  122        2.948066   0.000000
  123        3.337826   0.000000
  124        3.338005   0.000000
  125        3.338097   0.000000
  126        3.338206   0.000000
  127        3.338386   0.000000
  128        3.338532   0.000000
 
  0.1250000E+00  0.2775558E-16  0.0000000E+00  0.3125000E-01
    1      -18.093955   1.000000
    2      -16.908665   1.000000
    3      -16.846778   1.000000
    4      -16.670314   1.000000
    5      -16.670176   1.000000
    6      -16.355360   1.000000
    7      -16.355152   1.000000
    8      -16.221346   1.000000
    9      -16.137908   1.000000
   10      -16.035767   1.000000
   11      -16.035616   1.000000
   12      -15.858127   1.000000
   13      -15.857905   1.000000
   14      -15.783812   1.000000
   15      -15.343972   1.000000
   16      -15.343910   1.000000
   17      -15.325775   1.000000
   18      -15.325661   1.000000
   19       -9.009345   1.000000
   20       -8.934491   1.000000
   21       -8.686878   1.000000
   22       -8.686779   1.000000
   23       -8.678374   1.000000
   24       -8.678239   1.000000
   25       -8.406371   1.000000
   26       -8.406265   1.000000
   27       -8.267540   1.000000
   28       -8.255440   1.000000
   29       -8.255275   1.000000
   30       -8.122963   1.000000
   31       -8.122929   1.000000
   32       -8.096779   1.000000
   33       -7.967160   1.000000
   34       -7.967055   1.000000
   35       -7.700172   1.000000
   36       -7.699950   1.000000
   37       -7.681448   1.000000
   38       -7.499328   1.000000
   39       -7.499207   1.000000
   40       -7.373288   1.000000
   41       -7.242396   1.000000
   42       -7.242268   1.000000
   43       -7.148916   1.000000
   44       -6.947571   1.000000
   45       -6.947366   1.000000
   46       -6.311137   1.000000
   47       -6.311004   1.000000
   48       -6.222636   1.000000
   49       -6.222487   1.000000
   50       -6.157764   1.000000
   51       -6.140115   1.000000
   52       -6.139599   1.000000
   53       -6.115643   1.000000
   54       -6.047096   1.000000
   55       -6.046599   1.000000
   56       -5.962102   1.000000
   57       -5.959901   1.000000
   58       -5.640537   1.000000
   59       -5.507598   1.000000
   60       -5.507421   1.000000
   61       -5.460441   1.000000
   62       -5.274547   1.000000
   63       -5.274406   1.000000
   64       -5.182067   1.000000
   65       -4.717408   1.000000
   66       -4.717115   1.000000
   67       -4.695756   1.000000
   68       -4.695350   1.000000
   69       -4.452647   1.000000
   70       -4.353457   1.000000
   71       -4.303692   1.000000
   72       -4.128932   1.000000
   73       -3.997363   1.000000
   74       -3.997154   1.000000
   75       -3.981072   1.000000
   76       -3.980903   1.000000
   77       -3.810865   1.000000
   78       -3.785297   1.000000
   79       -3.626152   1.000000
   80       -2.787316   0.271088
   81       -2.787184   0.270779
   82       -2.629944   0.042506
   83       -2.629733   0.042372
   84       -2.539286   0.009055
   85       -2.526561   0.007077
   86       -2.526288   0.007039
   87       -2.494199   0.003657
   88       -2.493989   0.003641
   89       -2.467470   0.002045
   90       -2.467360   0.002040
   91       -2.399126   0.000398
   92       -2.346286   0.000096
   93       -2.318963   0.000044
   94       -2.297537   0.000023
   95       -2.297297   0.000023
   96       -2.274161   0.000011
   97       -2.267428   0.000009
   98       -2.267299   0.000009
   99       -2.249494   0.000005
  100       -1.072117   0.000000
  101       -1.072092   0.000000
  102       -0.899161   0.000000
  103       -0.816680   0.000000
  104       -0.816655   0.000000
  105       -0.606942   0.000000
  106       -0.606852   0.000000
  107       -0.561150   0.000000
  108       -0.561078   0.000000
  109       -0.376713   0.000000
  110       -0.291840   0.000000
  111       -0.291627   0.000000
  112       -0.265425   0.000000
  113       -0.248117   0.000000
  114       -0.238245   0.000000
  115       -0.238089   0.000000
  116       -0.010031   0.000000
  117        0.081210   0.000000
  118        1.738535   0.000000
  119        1.893054   0.000000
  120        2.259158   0.000000
  121        2.612202   0.000000
  122        2.985960   0.000000
  123        3.150710   0.000000
  124        3.253097   0.000000
  125        3.316372   0.000000
  126        3.316599   0.000000
  127        3.382196   0.000000
  128        3.382484   0.000000
 
  0.2500000E+00  0.5551115E-16  0.0000000E+00  0.3125000E-01
    1      -18.007918   1.000000
    2      -17.154063   1.000000
    3      -16.853162   1.000000
    4      -16.776391   1.000000
    5      -16.776291   1.000000
    6      -16.320162   1.000000
    7      -16.161728   1.000000
    8      -16.161502   1.000000
    9      -16.096711   1.000000
   10      -16.096605   1.000000
   11      -15.961326   1.000000
   12      -15.751543   1.000000
   13      -15.751304   1.000000
   14      -15.639157   1.000000
   15      -15.436609   1.000000
   16      -15.436467   1.000000
   17      -15.371886   1.000000
   18      -15.371725   1.000000
   19       -9.373974   1.000000
   20       -8.916182   1.000000
   21       -8.909606   1.000000
   22       -8.909526   1.000000
   23       -8.867024   1.000000
   24       -8.866951   1.000000
   25       -8.467840   1.000000
   26       -8.418282   1.000000
   27       -8.418144   1.000000
   28       -8.259181   1.000000
   29       -8.259121   1.000000
   30       -8.078007   1.000000
   31       -8.077874   1.000000
   32       -8.041309   1.000000
   33       -7.715986   1.000000
   34       -7.624778   1.000000
   35       -7.624662   1.000000
   36       -7.517589   1.000000
   37       -7.517479   1.000000
   38       -7.400472   1.000000
   39       -7.400213   1.000000
   40       -7.089049   1.000000
   41       -7.088929   1.000000
   42       -7.007943   1.000000
   43       -6.883707   1.000000
   44       -6.883465   1.000000
   45       -6.698085   1.000000
   46       -6.463020   1.000000
   47       -6.365097   1.000000
   48       -6.365011   1.000000
   49       -6.321073   1.000000
   50       -6.320664   1.000000
   51       -6.180811   1.000000
   52       -6.085361   1.000000
   53       -6.085025   1.000000
   54       -6.084090   1.000000
   55       -6.083909   1.000000
   56       -5.938980   1.000000
   57       -5.901775   1.000000
   58       -5.737168   1.000000
   59       -5.540433   1.000000
   60       -5.540287   1.000000
   61       -5.234439   1.000000
   62       -5.197512   1.000000
   63       -5.197298   1.000000
   64       -5.169826   1.000000
   65       -5.169565   1.000000
   66       -4.970146   1.000000
   67       -4.954270   1.000000
   68       -4.954159   1.000000
   69       -4.447335   1.000000
   70       -4.363216   1.000000
   71       -4.293965   1.000000
   72       -4.086734   1.000000
   73       -3.997502   1.000000
   74       -3.920940   1.000000
   75       -3.743769   1.000000
   76       -3.743560   1.000000
   77       -3.724205   1.000000
   78       -3.724009   1.000000
   79       -3.651602   1.000000
   80       -2.947388   0.699287
   81       -2.947288   0.699042
   82       -2.622631   0.038029
   83       -2.617528   0.035139
   84       -2.617333   0.035033
   85       -2.615492   0.034038
   86       -2.615173   0.033868
   87       -2.562856   0.014021
   88       -2.562745   0.013993
   89       -2.451548   0.001424
   90       -2.421663   0.000699
   91       -2.387216   0.000292
   92       -2.386951   0.000290
   93       -2.250376   0.000005
   94       -2.250132   0.000005
   95       -2.224993   0.000002
   96       -2.224817   0.000002
   97       -2.211849   0.000001
   98       -2.200890   0.000001
   99       -2.184982   0.000001
  100       -1.251397   0.000000
  101       -1.251351   0.000000
  102       -1.083343   0.000000
  103       -1.005760   0.000000
  104       -1.005716   0.000000
  105       -0.786486   0.000000
  106       -0.786335   0.000000
  107       -0.368009   0.000000
  108       -0.367871   0.000000
  109       -0.330843   0.000000
  110       -0.330796   0.000000
  111       -0.312350   0.000000
  112       -0.260923   0.000000
  113       -0.239054   0.000000
  114       -0.152033   0.000000
  115       -0.149483   0.000000
  116       -0.149318   0.000000
  117        0.006364   0.000000
  118        1.851527   0.000000
  119        2.004068   0.000000
  120        2.371074   0.000000
  121        2.723229   0.000000
  122        2.926511   0.000000
  123        2.959837   0.000000
  124        3.098369   0.000000
  125        3.120262   0.000000
  126        3.351171   0.000000
  127        3.382244   0.000000
  128        3.382448   0.000000
 
  0.3750000E+00  0.0000000E+00  0.0000000E+00  0.3125000E-01
    1      -17.866608   1.000000
    2      -17.433302   1.000000
    3      -16.841701   1.000000
    4      -16.841633   1.000000
    5      -16.762626   1.000000
    6      -16.490493   1.000000
    7      -16.134493   1.000000
    8      -16.134434   1.000000
    9      -15.958324   1.000000
   10      -15.958089   1.000000
   11      -15.787516   1.000000
   12      -15.641864   1.000000
   13      -15.641618   1.000000
   14      -15.579759   1.000000
   15      -15.579561   1.000000
   16      -15.536513   1.000000
   17      -15.444288   1.000000
   18      -15.444084   1.000000
   19       -9.675583   1.000000
   20       -9.033815   1.000000
   21       -9.033760   1.000000
   22       -9.001415   1.000000
   23       -9.001385   1.000000
   24       -8.763979   1.000000
   25       -8.583895   1.000000
   26       -8.421654   1.000000
   27       -8.421502   1.000000
   28       -8.350350   1.000000
   29       -8.350230   1.000000
   30       -8.307827   1.000000
   31       -7.948149   1.000000
   32       -7.948057   1.000000
   33       -7.686665   1.000000
   34       -7.686565   1.000000
   35       -7.424609   1.000000
   36       -7.181899   1.000000
   37       -7.181670   1.000000
   38       -7.097388   1.000000
   39       -7.097257   1.000000
   40       -6.962523   1.000000
   41       -6.947975   1.000000
   42       -6.947904   1.000000
   43       -6.785677   1.000000
   44       -6.756886   1.000000
   45       -6.756674   1.000000
   46       -6.508124   1.000000
   47       -6.507795   1.000000
   48       -6.399184   1.000000
   49       -6.399111   1.000000
   50       -6.223272   1.000000
   51       -6.044251   1.000000
   52       -6.044107   1.000000
   53       -5.979901   1.000000
   54       -5.908328   1.000000
   55       -5.902435   1.000000
   56       -5.902302   1.000000
   57       -5.875815   1.000000
   58       -5.737298   1.000000
   59       -5.699861   1.000000
   60       -5.699735   1.000000
   61       -5.579328   1.000000
   62       -5.579246   1.000000
   63       -5.517863   1.000000
   64       -5.517558   1.000000
   65       -5.081169   1.000000
   66       -4.859805   1.000000
   67       -4.859746   1.000000
   68       -4.857121   1.000000
   69       -4.537516   1.000000
   70       -4.405976   1.000000
   71       -4.381459   1.000000
   72       -4.251407   1.000000
   73       -4.092096   1.000000
   74       -3.856072   1.000000
   75       -3.686265   1.000000
   76       -3.586315   1.000000
   77       -3.586064   1.000000
   78       -3.487782   0.999993
   79       -3.487638   0.999993
   80       -3.111084   0.953508
   81       -3.110975   0.953432
   82       -2.675753   0.080997
   83       -2.662131   0.067494
   84       -2.661917   0.067296
   85       -2.641756   0.050628
   86       -2.641651   0.050551
   87       -2.622682   0.038059
   88       -2.622471   0.037936
   89       -2.475866   0.002463
   90       -2.470029   0.002165
   91       -2.309841   0.000034
   92       -2.309538   0.000033
   93       -2.237038   0.000003
   94       -2.236810   0.000003
   95       -2.219398   0.000002
   96       -2.219140   0.000002
   97       -2.143026   0.000000
   98       -2.134294   0.000000
   99       -2.132793   0.000000
  100       -1.306845   0.000000
  101       -1.306784   0.000000
  102       -1.151267   0.000000
  103       -1.151220   0.000000
  104       -1.128232   0.000000
  105       -1.029615   0.000000
  106       -1.029470   0.000000
  107       -0.678418   0.000000
  108       -0.432591   0.000000
  109       -0.432493   0.000000
  110       -0.233895   0.000000
  111       -0.233147   0.000000
  112       -0.164444   0.000000
  113       -0.164372   0.000000
  114       -0.089007   0.000000
  115       -0.080136   0.000000
  116       -0.079984   0.000000
  117       -0.009891   0.000000
  118        2.032653   0.000000
  119        2.187044   0.000000
  120        2.556775   0.000000
  121        2.579286   0.000000
  122        2.753586   0.000000
  123        2.905342   0.000000
  124        2.907353   0.000000
  125        3.147994   0.000000
  126        3.246069   0.000000
  127        3.282809   0.000000
  128        3.361150   0.000000
 
  0.5000000E+00  0.1110223E-15  0.0000000E+00  0.1562500E-01
    1      -17.673786   1.000000
    2      -17.672911   1.000000
    3      -16.863738   1.000000
    4      -16.863688   1.000000
    5      -16.640469   1.000000
    6      -16.639881   1.000000
    7      -16.147280   1.000000
    8      -16.147254   1.000000
    9      -15.759201   1.000000
   10      -15.759083   1.000000
   11      -15.758836   1.000000
   12      -15.758711   1.000000
   13      -15.727468   1.000000
   14      -15.536908   1.000000
   15      -15.536851   1.000000
   16      -15.536500   1.000000
   17      -15.536402   1.000000
   18      -15.497553   1.000000
   19       -9.782907   1.000000
   20       -9.061950   1.000000
   21       -9.061842   1.000000
   22       -9.061318   1.000000
   23       -9.061192   1.000000
   24       -8.622739   1.000000
   25       -8.558487   1.000000
   26       -8.557678   1.000000
   27       -8.402467   1.000000
   28       -8.402369   1.000000
   29       -8.402187   1.000000
   30       -8.402009   1.000000
   31       -7.894335   1.000000
   32       -7.894237   1.000000
   33       -7.715868   1.000000
   34       -7.715810   1.000000
   35       -7.109120   1.000000
   36       -7.108837   1.000000
   37       -7.095619   1.000000
   38       -7.095435   1.000000
   39       -6.957546   1.000000
   40       -6.896048   1.000000
   41       -6.895911   1.000000
   42       -6.895812   1.000000
   43       -6.895697   1.000000
   44       -6.643280   1.000000
   45       -6.643136   1.000000
   46       -6.642858   1.000000
   47       -6.642701   1.000000
   48       -6.237960   1.000000
   49       -6.165632   1.000000
   50       -6.165540   1.000000
   51       -6.165277   1.000000
   52       -6.165130   1.000000
   53       -5.882754   1.000000
   54       -5.881538   1.000000
   55       -5.859236   1.000000
   56       -5.859005   1.000000
   57       -5.830140   1.000000
   58       -5.830071   1.000000
   59       -5.725328   1.000000
   60       -5.725235   1.000000
   61       -5.725078   1.000000
   62       -5.724928   1.000000
   63       -5.722384   1.000000
   64       -5.315479   1.000000
   65       -5.315084   1.000000
   66       -4.824069   1.000000
   67       -4.823929   1.000000
   68       -4.803653   1.000000
   69       -4.803635   1.000000
   70       -4.422411   1.000000
   71       -4.256823   1.000000
   72       -4.256081   1.000000
   73       -4.236037   1.000000
   74       -3.748925   1.000000
   75       -3.748250   1.000000
   76       -3.529790   0.999998
   77       -3.529527   0.999998
   78       -3.287200   0.998279
   79       -3.287085   0.998274
   80       -3.285933   0.998229
   81       -3.285836   0.998225
   82       -2.693940   0.102078
   83       -2.672496   0.077596
   84       -2.672389   0.077487
   85       -2.653347   0.059755
   86       -2.653119   0.059564
   87       -2.652723   0.059233
   88       -2.652195   0.058794
   89       -2.482372   0.002839
   90       -2.481466   0.002784
   91       -2.251764   0.000006
   92       -2.251448   0.000005
   93       -2.251383   0.000005
   94       -2.251075   0.000005
   95       -2.238208   0.000004
   96       -2.237967   0.000003
   97       -2.128636   0.000000
   98       -2.105949   0.000000
   99       -2.105547   0.000000
  100       -1.223397   0.000000
  101       -1.223236   0.000000
  102       -1.222903   0.000000
  103       -1.222862   0.000000
  104       -1.206032   0.000000
  105       -1.205991   0.000000
  106       -0.984296   0.000000
  107       -0.983745   0.000000
  108       -0.456017   0.000000
  109       -0.455924   0.000000
  110       -0.231140   0.000000
  111       -0.175728   0.000000
  112       -0.175497   0.000000
  113       -0.080171   0.000000
  114       -0.080139   0.000000
  115       -0.079969   0.000000
  116       -0.079739   0.000000
  117        0.036727   0.000000
  118        2.276808   0.000000
  119        2.276922   0.000000
  120        2.438723   0.000000
  121        2.438850   0.000000
  122        2.815783   0.000000
  123        2.815817   0.000000
  124        2.961352   0.000000
  125        3.080156   0.000000
  126        3.162898   0.000000
  127        3.162939   0.000000
  128        3.351860   0.000000
 
  0.0000000E+00  0.1250000E+00  0.0000000E+00  0.3125000E-01
    1      -18.093954   1.000000
    2      -16.908665   1.000000
    3      -16.846777   1.000000
    4      -16.670324   1.000000
    5      -16.670167   1.000000
    6      -16.355367   1.000000
    7      -16.355149   1.000000
    8      -16.221343   1.000000
    9      -16.137908   1.000000
   10      -16.035770   1.000000
   11      -16.035613   1.000000
   12      -15.858128   1.000000
   13      -15.857905   1.000000
   14      -15.783812   1.000000
   15      -15.343967   1.000000
   16      -15.343915   1.000000
   17      -15.325773   1.000000
   18      -15.325663   1.000000
   19       -9.009345   1.000000
   20       -8.934491   1.000000
   21       -8.686894   1.000000
   22       -8.686777   1.000000
   23       -8.678375   1.000000
   24       -8.678225   1.000000
   25       -8.406377   1.000000
   26       -8.406263   1.000000
   27       -8.267539   1.000000
   28       -8.255439   1.000000
   29       -8.255278   1.000000
   30       -8.122964   1.000000
   31       -8.122928   1.000000
   32       -8.096777   1.000000
   33       -7.967163   1.000000
   34       -7.967050   1.000000
   35       -7.700170   1.000000
   36       -7.699950   1.000000
   37       -7.681446   1.000000
   38       -7.499341   1.000000
   39       -7.499195   1.000000
   40       -7.373290   1.000000
   41       -7.242407   1.000000
   42       -7.242262   1.000000
   43       -7.148911   1.000000
   44       -6.947572   1.000000
   45       -6.947365   1.000000
   46       -6.311126   1.000000
   47       -6.311015   1.000000
   48       -6.222640   1.000000
   49       -6.222482   1.000000
   50       -6.157774   1.000000
   51       -6.140119   1.000000
   52       -6.139594   1.000000
   53       -6.115636   1.000000
   54       -6.047099   1.000000
   55       -6.046599   1.000000
   56       -5.961976   1.000000
   57       -5.960025   1.000000
   58       -5.640542   1.000000
   59       -5.507591   1.000000
   60       -5.507426   1.000000
   61       -5.460441   1.000000
   62       -5.274546   1.000000
   63       -5.274403   1.000000
   64       -5.182069   1.000000
   65       -4.717416   1.000000
   66       -4.717105   1.000000
   67       -4.695750   1.000000
   68       -4.695347   1.000000
   69       -4.452655   1.000000
   70       -4.353464   1.000000
   71       -4.303692   1.000000
   72       -4.128933   1.000000
   73       -3.997358   1.000000
   74       -3.997165   1.000000
   75       -3.981075   1.000000
   76       -3.980889   1.000000
   77       -3.810866   1.000000
   78       -3.785297   1.000000
   79       -3.626150   1.000000
   80       -2.787316   0.271088
   81       -2.787183   0.270775
   82       -2.629985   0.042532
   83       -2.629691   0.042345
   84       -2.539285   0.009055
   85       -2.526578   0.007079
   86       -2.526284   0.007038
   87       -2.494199   0.003657
   88       -2.493991   0.003641
   89       -2.467466   0.002045
   90       -2.467353   0.002039
   91       -2.399131   0.000398
   92       -2.346284   0.000096
   93       -2.318955   0.000044
   94       -2.297571   0.000023
   95       -2.297267   0.000023
   96       -2.274156   0.000011
   97       -2.267440   0.000009
   98       -2.267296   0.000009
   99       -2.249491   0.000005
  100       -1.072111   0.000000
  101       -1.072099   0.000000
  102       -0.899157   0.000000
  103       -0.816681   0.000000
  104       -0.816653   0.000000
  105       -0.606967   0.000000
  106       -0.606835   0.000000
  107       -0.561143   0.000000
  108       -0.561085   0.000000
  109       -0.376706   0.000000
  110       -0.291844   0.000000
  111       -0.291623   0.000000
  112       -0.265434   0.000000
  113       -0.248121   0.000000
  114       -0.238242   0.000000
  115       -0.238082   0.000000
  116       -0.010024   0.000000
  117        0.081203   0.000000
  118        1.738535   0.000000
  119        1.893054   0.000000
  120        2.259158   0.000000
  121        2.612202   0.000000
  122        2.985960   0.000000
  123        3.150711   0.000000
  124        3.253098   0.000000
  125        3.316368   0.000000
  126        3.316600   0.000000
  127        3.382193   0.000000
  128        3.382484   0.000000
 
  0.1250000E+00  0.1250000E+00  0.0000000E+00  0.3125000E-01
    1      -18.036496   1.000000
    2      -16.985061   1.000000
    3      -16.984398   1.000000
    4      -16.871566   1.000000
    5      -16.462467   1.000000
    6      -16.462406   1.000000
    7      -16.219268   1.000000
    8      -16.218656   1.000000
    9      -16.068895   1.000000
   10      -16.068357   1.000000
   11      -15.917826   1.000000
   12      -15.917695   1.000000
   13      -15.699886   1.000000
   14      -15.699391   1.000000
   15      -15.418160   1.000000
   16      -15.395381   1.000000
   17      -15.370872   1.000000
   18      -15.341252   1.000000
   19       -9.147367   1.000000
   20       -9.147271   1.000000
   21       -8.958254   1.000000
   22       -8.947025   1.000000
   23       -8.734163   1.000000
   24       -8.448791   1.000000
   25       -8.419074   1.000000
   26       -8.418637   1.000000
   27       -8.404647   1.000000
   28       -8.374967   1.000000
   29       -8.374919   1.000000
   30       -7.973184   1.000000
   31       -7.973133   1.000000
   32       -7.942487   1.000000
   33       -7.942036   1.000000
   34       -7.773611   1.000000
   35       -7.773314   1.000000
   36       -7.684502   1.000000
   37       -7.599598   1.000000
   38       -7.322572   1.000000
   39       -7.322517   1.000000
   40       -7.058093   1.000000
   41       -7.057894   1.000000
   42       -7.050500   1.000000
   43       -7.049997   1.000000
   44       -6.916231   1.000000
   45       -6.897528   1.000000
   46       -6.377632   1.000000
   47       -6.360926   1.000000
   48       -6.332986   1.000000
   49       -6.220795   1.000000
   50       -6.220168   1.000000
   51       -6.213683   1.000000
   52       -6.213593   1.000000
   53       -6.155713   1.000000
   54       -6.100971   1.000000
   55       -5.955110   1.000000
   56       -5.954883   1.000000
   57       -5.947363   1.000000
   58       -5.670278   1.000000
   59       -5.669916   1.000000
   60       -5.328837   1.000000
   61       -5.328706   1.000000
   62       -5.291119   1.000000
   63       -5.127294   1.000000
   64       -5.126896   1.000000
   65       -5.059549   1.000000
   66       -5.059130   1.000000
   67       -4.726255   1.000000
   68       -4.726126   1.000000
   69       -4.633208   1.000000
   70       -4.632919   1.000000
   71       -3.996272   1.000000
   72       -3.996150   1.000000
   73       -3.957785   1.000000
   74       -3.930703   1.000000
   75       -3.930439   1.000000
   76       -3.920173   1.000000
   77       -3.737161   1.000000
   78       -3.736762   1.000000
   79       -3.637897   1.000000
   80       -2.958502   0.726060
   81       -2.805232   0.314603
   82       -2.723680   0.144686
   83       -2.599867   0.026496
   84       -2.599384   0.026287
   85       -2.585474   0.020837
   86       -2.585326   0.020784
   87       -2.548774   0.010830
   88       -2.465051   0.001937
   89       -2.464974   0.001933
   90       -2.435444   0.000975
   91       -2.399409   0.000401
   92       -2.398399   0.000390
   93       -2.261497   0.000008
   94       -2.260643   0.000007
   95       -2.245746   0.000005
   96       -2.245592   0.000004
   97       -2.225933   0.000002
   98       -2.212322   0.000001
   99       -2.212132   0.000001
  100       -1.254672   0.000000
  101       -1.170755   0.000000
  102       -0.999369   0.000000
  103       -0.999028   0.000000
  104       -0.906952   0.000000
  105       -0.906824   0.000000
  106       -0.448257   0.000000
  107       -0.447927   0.000000
  108       -0.408192   0.000000
  109       -0.368931   0.000000
  110       -0.320305   0.000000
  111       -0.319686   0.000000
  112       -0.261652   0.000000
  113       -0.261522   0.000000
  114       -0.206337   0.000000
  115       -0.146608   0.000000
  116       -0.146444   0.000000
  117        0.016164   0.000000
  118        1.814371   0.000000
  119        1.967177   0.000000
  120        2.333821   0.000000
  121        2.686268   0.000000