       N       E                     dE             d eps       ncg     rms          rms(c)
DAV:   1     0.115015282826E+04    0.11502E+04   -0.36495E+04  8704   0.558E+02
DAV:   2     0.601964317982E+02   -0.10900E+04   -0.10395E+04  9856   0.209E+02
DAV:   3    -0.191764792774E+03   -0.25196E+03   -0.24285E+03 13216   0.915E+01
DAV:   4    -0.206028906141E+03   -0.14264E+02   -0.14082E+02 11200   0.304E+01
DAV:   5    -0.206515139622E+03   -0.48623E+00   -0.48558E+00 12384   0.573E+00    0.403E+01
DAV:   6    -0.297412210009E+03   -0.90897E+02   -0.89953E+02 13024   0.109E+02    0.100E+02
DAV:   7    -0.172746962543E+03    0.12467E+03   -0.42082E+02 11392   0.143E+02    0.203E+01
DAV:   8    -0.174174833819E+03   -0.14279E+01   -0.56011E+01 10048   0.140E+01    0.170E+01
DAV:   9    -0.169831439719E+03    0.43434E+01   -0.15796E+01 13984   0.181E+01    0.298E+00
DAV:  10    -0.170401060902E+03   -0.56962E+00   -0.64026E+00 13696   0.626E+00    0.117E+01
DAV:  11    -0.169874547901E+03    0.52651E+00   -0.55669E+00 13312   0.545E+00    0.369E+00
DAV:  12    -0.170154197236E+03   -0.27965E+00   -0.41088E+00 12576   0.456E+00    0.943E+00
DAV:  13    -0.169786869755E+03    0.36733E+00   -0.35192E+00 13824   0.417E+00    0.217E+00
DAV:  14    -0.169772895122E+03    0.13975E-01   -0.30402E-01 12288   0.126E+00    0.136E+00
DAV:  15    -0.169765043871E+03    0.78513E-02   -0.86319E-02 12640   0.689E-01    0.854E-01
DAV:  16    -0.169763708634E+03    0.13352E-02   -0.48718E-02 13344   0.502E-01    0.669E-01
DAV:  17    -0.169760983698E+03    0.27249E-02   -0.27348E-02 13408   0.658E-01    0.353E-01
DAV:  18    -0.169762759390E+03   -0.17757E-02   -0.19655E-02 13600   0.330E-01    0.793E-01
DAV:  19    -0.169760137040E+03    0.26224E-02   -0.20089E-02 11712   0.316E-01    0.316E-01
DAV:  20    -0.169760278169E+03   -0.14113E-03   -0.44604E-03 12992   0.233E-01    0.196E-01
DAV:  21    -0.169760368164E+03   -0.89995E-04   -0.30250E-03  9248   0.128E-01    0.169E-01
DAV:  22    -0.169761663908E+03   -0.12957E-02   -0.15540E-03  9888   0.126E-01    0.753E-02
DAV:  23    -0.169762825765E+03   -0.11619E-02   -0.40069E-04  8480   0.572E-02    0.102E-01
DAV:  24    -0.169762918352E+03   -0.92587E-04   -0.40945E-04  7328   0.509E-02
   1 F= -.16976292E+03 E0= -.16946222E+03  d E =-.169763E+03
       N       E                     dE             d eps       ncg     rms          rms(c)
DAV:   1    -0.178660590305E+03   -0.88978E+01   -0.29846E+02  9792   0.598E+01    0.138E+01
DAV:   2    -0.173328119687E+03    0.53325E+01   -0.12130E+01 10880   0.102E+01    0.683E+00
DAV:   3    -0.171702889859E+03    0.16252E+01   -0.77123E+00 10144   0.561E+00    0.259E+00
DAV:   4    -0.171749905366E+03   -0.47016E-01   -0.18219E+00 11712   0.536E+00    0.428E+00
DAV:   5    -0.171700331137E+03    0.49574E-01   -0.19989E+00 13408   0.410E+00    0.308E+00
DAV:   6    -0.171632026699E+03    0.68304E-01   -0.50392E-01 12992   0.257E+00    0.825E-01
DAV:   7    -0.171675316095E+03   -0.43289E-01   -0.46397E-01 12672   0.200E+00    0.303E+00
DAV:   8    -0.171623528763E+03    0.51787E-01   -0.41955E-01 12000   0.178E+00    0.435E-01
DAV:   9    -0.171624753157E+03   -0.12244E-02   -0.29454E-02 11968   0.530E-01    0.530E-01
DAV:  10    -0.171622984115E+03    0.17690E-02   -0.12245E-02 13312   0.321E-01    0.123E-01
DAV:  11    -0.171623834177E+03   -0.85006E-03   -0.76576E-03 12864   0.254E-01    0.398E-01
DAV:  12    -0.171622961367E+03    0.87281E-03   -0.76253E-03 12224   0.246E-01    0.822E-02
DAV:  13    -0.171623180796E+03   -0.21943E-03   -0.10200E-03  5728   0.959E-02    0.119E-01
DAV:  14    -0.171623119882E+03    0.60913E-04   -0.70563E-04  7104   0.855E-02
   2 F= -.17162312E+03 E0= -.17145207E+03  d E =-.186020E+01
       N       E                     dE             d eps       ncg     rms          rms(c)
DAV:   1    -0.172026010812E+03   -0.40283E+00   -0.67510E+01  8864   0.187E+01    0.271E+00
DAV:   2    -0.172638042337E+03   -0.61203E+00   -0.74005E+00 13152   0.901E+00    0.342E+00
DAV:   3    -0.172530025112E+03    0.10802E+00   -0.72870E-01 13568   0.478E+00    0.159E+00
DAV:   4    -0.172682563475E+03   -0.15254E+00   -0.18505E+00 12928   0.415E+00    0.646E+00
DAV:   5    -0.172496595741E+03    0.18597E+00   -0.23325E+00 12224   0.393E+00    0.195E+00
DAV:   6    -0.172551990698E+03   -0.55395E-01   -0.88102E-01 12128   0.288E+00    0.430E+00
DAV:   7    -0.172458153003E+03    0.93838E-01   -0.71883E-01 12096   0.238E+00    0.465E-01
DAV:   8    -0.172460635304E+03   -0.24823E-02   -0.33678E-02 12064   0.525E-01    0.644E-01
DAV:   9    -0.172457959333E+03    0.26760E-02   -0.19930E-02 12832   0.387E-01    0.145E-01
DAV:  10    -0.172459160363E+03   -0.12010E-02   -0.10484E-02 13472   0.288E-01    0.474E-01
DAV:  11    -0.172457922317E+03    0.12380E-02   -0.10112E-02 11360   0.276E-01    0.927E-02
DAV:  12    -0.172458185685E+03   -0.26337E-03   -0.11604E-03  5952   0.948E-02    0.130E-01
DAV:  13    -0.172458094819E+03    0.90866E-04   -0.72709E-04  6272   0.819E-02
   3 F= -.17245809E+03 E0= -.17227443E+03  d E =-.834975E+00
       N       E                     dE             d eps       ncg     rms          rms(c)
DAV:   1    -0.172959272546E+03   -0.50109E+00   -0.12789E+01 10848   0.111E+01    0.262E+00
DAV:   2    -0.172830014683E+03    0.12926E+00   -0.10562E+00 13440   0.338E+00    0.128E+00
DAV:   3    -0.172863200176E+03   -0.33185E-01   -0.57959E-01 13184   0.366E+00    0.255E+00
DAV:   4    -0.172840812682E+03    0.22387E-01   -0.10294E+00 12704   0.367E+00    0.350E+00
DAV:   5    -0.172774964040E+03    0.65849E-01   -0.65385E-01 12992   0.232E+00    0.649E-01
DAV:   6    -0.172785897412E+03   -0.10933E-01   -0.12354E-01 12928   0.102E+00    0.155E+00
DAV:   7    -0.172772622853E+03    0.13275E-01   -0.10665E-01 12096   0.898E-01    0.181E-01
DAV:   8    -0.172774180753E+03   -0.15579E-02   -0.99083E-03 10592   0.281E-01    0.437E-01
DAV:   9    -0.172773078967E+03    0.11018E-02   -0.82589E-03  8224   0.261E-01    0.935E-02
DAV:  10    -0.172773333000E+03   -0.25403E-03   -0.11503E-03  5760   0.104E-01    0.135E-01
DAV:  11    -0.172773234111E+03    0.98889E-04   -0.91301E-04  6848   0.101E-01
   4 F= -.17277323E+03 E0= -.17259943E+03  d E =-.315139E+00
       N       E                     dE             d eps       ncg     rms          rms(c)
DAV:   1    -0.173622320124E+03   -0.84899E+00   -0.63136E+01 10112   0.223E+01    0.530E+00
DAV:   2    -0.173390703305E+03    0.23162E+00   -0.66872E+00 13952   0.810E+00    0.293E+00
DAV:   3    -0.173520799751E+03   -0.13010E+00   -0.25966E+00 13824   0.841E+00    0.507E+00
DAV:   4    -0.173438238525E+03    0.82561E-01   -0.44817E+00 13248   0.749E+00    0.663E+00
DAV:   5    -0.173164221195E+03    0.27402E+00   -0.19781E+00 13184   0.490E+00    0.165E+00
DAV:   6    -0.173286243842E+03   -0.12202E+00   -0.13594E+00 13120   0.352E+00    0.486E+00
DAV:   7    -0.173144432082E+03    0.14181E+00   -0.11033E+00 12992   0.314E+00    0.466E-01
DAV:   8    -0.173148205609E+03   -0.37735E-02   -0.45925E-02 12992   0.640E-01    0.810E-01
DAV:   9    -0.173144586253E+03    0.36194E-02   -0.30911E-02 12288   0.524E-01    0.188E-01
DAV:  10    -0.173145637699E+03   -0.10514E-02   -0.87393E-03 12096   0.281E-01    0.413E-01
DAV:  11    -0.173144639744E+03    0.99795E-03   -0.78750E-03  9920   0.264E-01    0.773E-02
DAV:  12    -0.173144848873E+03   -0.20913E-03   -0.77186E-04  5600   0.862E-02    0.118E-01
DAV:  13    -0.173144775402E+03    0.73471E-04   -0.69322E-04  7552   0.901E-02
   5 F= -.17314478E+03 E0= -.17297996E+03  d E =-.371541E+00
       N       E                     dE             d eps       ncg     rms          rms(c)
DAV:   1    -0.173258527171E+03   -0.11368E+00   -0.92142E+00 10368   0.887E+00    0.211E+00
DAV:   2    -0.173217891532E+03    0.40636E-01   -0.96586E-01 13952   0.342E+00    0.133E+00
DAV:   3    -0.173239668365E+03   -0.21777E-01   -0.51264E-01 13056   0.373E+00    0.226E+00
DAV:   4    -0.173258168208E+03   -0.18500E-01   -0.10699E+00 12480   0.351E+00    0.370E+00
DAV:   5    -0.173172401720E+03    0.85766E-01   -0.59395E-01 12864   0.253E+00    0.483E-01
DAV:   6    -0.173190801573E+03   -0.18400E-01   -0.18177E-01 12800   0.130E+00    0.175E+00
DAV:   7    -0.173170926949E+03    0.19875E-01   -0.14205E-01 11968   0.115E+00    0.143E-01
DAV:   8    -0.173172008665E+03   -0.10817E-02   -0.64968E-03 11648   0.244E-01    0.300E-01
DAV:   9    -0.173171464976E+03    0.54369E-03   -0.48567E-03  7968   0.210E-01    0.644E-02
DAV:  10    -0.173171566589E+03   -0.10161E-03   -0.34221E-04  5440   0.602E-02    0.459E-02
DAV:  11    -0.173171584174E+03   -0.17585E-04   -0.41003E-04  7328   0.770E-02
   6 F= -.17317158E+03 E0= -.17301372E+03  d E =-.268088E-01
       N       E                     dE             d eps       ncg     rms          rms(c)
DAV:   1    -0.173172748293E+03   -0.11817E-02   -0.10938E-01 10400   0.940E-01    0.224E-01
DAV:   2    -0.173172716904E+03    0.31389E-04   -0.13711E-02 13440   0.419E-01    0.215E-01
DAV:   3    -0.173174496278E+03   -0.17794E-02   -0.26616E-02 12384   0.571E-01    0.614E-01
DAV:   4    -0.173172500422E+03    0.19959E-02   -0.28437E-02 12256   0.499E-01    0.263E-01
DAV:   5    -0.173172019842E+03    0.48058E-03   -0.39065E-03 10240   0.266E-01    0.673E-02
DAV:   6    -0.173172238164E+03   -0.21832E-03   -0.25550E-03  7872   0.160E-01    0.204E-01
DAV:   7    -0.173171968989E+03    0.26918E-03   -0.16685E-03  7296   0.134E-01    0.124E-02
DAV:   8    -0.173172023443E+03   -0.54455E-04   -0.12691E-04  5440   0.386E-02
   7 F= -.17317202E+03 E0= -.17301336E+03  d E =-.439269E-03
