 vasp.5.4.1 05Feb16 (build Jul 05 2020 17:13:04) complex                        
  
 executed on           IFC91_ompi date 2024.04.05  10:55:14
 running on   32 total cores
 distrk:  each k-point on   32 cores,    1 groups
 distr:  one band on NCORES_PER_BAND=   1 cores,   32 groups


--------------------------------------------------------------------------------------------------------


 INCAR:
 POTCAR:   PAW_PBE Cr 06Sep2000                   
 POTCAR:    PAW_PBE S 17Jan2003                   

 ----------------------------------------------------------------------------- 
|                                                                             |
|           W    W    AA    RRRRR   N    N  II  N    N   GGGG   !!!           |
|           W    W   A  A   R    R  NN   N  II  NN   N  G    G  !!!           |
|           W    W  A    A  R    R  N N  N  II  N N  N  G       !!!           |
|           W WW W  AAAAAA  RRRRR   N  N N  II  N  N N  G  GGG   !            |
|           WW  WW  A    A  R   R   N   NN  II  N   NN  G    G                |
|           W    W  A    A  R    R  N    N  II  N    N   GGGG   !!!           |
|                                                                             |
|      For optimal performance we recommend to set                            |
|        NCORE= 4 - approx SQRT( number of cores)                             |
|      NCORE specifies how many cores store one orbital (NPAR=cpu/NCORE).     |
|      This setting can  greatly improve the performance of VASP for DFT.     |
|      The default, NPAR=number of cores might be grossly inefficient         |
|      on modern multi-core architectures or massively parallel machines.     |
|      Do your own testing !!!!                                               |
|      Unfortunately you need to use the default for GW and RPA calculations. |
|      (for HF NCORE is supported but not extensively tested yet)             |
|                                                                             |
 ----------------------------------------------------------------------------- 

 POTCAR:   PAW_PBE Cr 06Sep2000                   
   VRHFIN =Cr : d5 s1                                                           
   LEXCH  = PE                                                                  
   EATOM  =   276.9744 eV,   20.3570 Ry                                         
                                                                                
   TITEL  = PAW_PBE Cr 06Sep2000                                                
   LULTRA =        F    use ultrasoft PP ?                                      
   IUNSCR =        1    unscreen: 0-lin 1-nonlin 2-no                           
   RPACOR =    2.080    partial core radius                                     
   POMASS =   51.996; ZVAL   =    6.000    mass and valenz                      
   RCORE  =    2.500    outmost cutoff radius                                   
   RWIGS  =    2.500; RWIGS  =    1.323    wigner-seitz radius (au A)           
   ENMAX  =  227.082; ENMIN  =  170.311 eV                                      
   RCLOC  =    1.721    cutoff for local pot                                    
   LCOR   =        T    correct aug charges                                     
   LPAW   =        T    paw PP                                                  
   EAUG   =  402.108                                                            
   DEXC   =    -.035                                                            
   RMAX   =    3.060    core radius for proj-oper                               
   RAUG   =    1.300    factor for augmentation sphere                          
   RDEP   =    2.609    radius for radial grids                                 
   QCUT   =   -4.085; QGAM   =    8.171    optimization parameters              
                                                                                
   Description                                                                  
     l     E      TYP  RCUT    TYP  RCUT                                        
     2   .000     23  2.500                                                     
     2   .000     23  2.500                                                     
     0   .000     23  2.500                                                     
     0   .000     23  2.500                                                     
     1  -.400     23  2.500                                                     
     1  2.000     23  2.500                                                     
     3   .000      7   .000                                                     
  local pseudopotential read in
  partial core-charges read in
  atomic valenz-charges read in
  non local Contribution for L=           2  read in
    real space projection operators read in
  non local Contribution for L=           2  read in
    real space projection operators read in
  non local Contribution for L=           0  read in
    real space projection operators read in
  non local Contribution for L=           0  read in
    real space projection operators read in
  non local Contribution for L=           1  read in
    real space projection operators read in
  non local Contribution for L=           1  read in
    real space projection operators read in
    PAW grid and wavefunctions read in
 
   number of l-projection  operators is LMAX  =           6
   number of lm-projection operators is LMMAX =          18
 
 POTCAR:    PAW_PBE S 17Jan2003                   
   VRHFIN =S : s2p4                                                             
   LEXCH  = PE                                                                  
   EATOM  =   276.8230 eV,   20.3459 Ry                                         
                                                                                
   TITEL  = PAW_PBE S 17Jan2003                                                 
   LULTRA =        F    use ultrasoft PP ?                                      
   IUNSCR =        1    unscreen: 0-lin 1-nonlin 2-no                           
   RPACOR =    1.500    partial core radius                                     
   POMASS =   32.066; ZVAL   =    6.000    mass and valenz                      
   RCORE  =    1.900    outmost cutoff radius                                   
   RWIGS  =    2.200; RWIGS  =    1.164    wigner-seitz radius (au A)           
   ENMAX  =  280.000; ENMIN  =  194.016 eV                                      
   ICORE  =        2    local potential                                         
   LCOR   =        T    correct aug charges                                     
   LPAW   =        T    paw PP                                                  
   EAUG   =  335.092                                                            
   DEXC   =     .000                                                            
   RMAX   =    2.867    core radius for proj-oper                               
   RAUG   =    1.300    factor for augmentation sphere                          
   RDEP   =    1.954    radius for radial grids                                 
   QCUT   =   -4.360; QGAM   =    8.721    optimization parameters              
                                                                                
   Description                                                                  
     l     E      TYP  RCUT    TYP  RCUT                                        
     0   .000     23  1.900                                                     
     0   .000     23  1.900                                                     
     1   .000     23  1.900                                                     
     1   .000     23  1.900                                                     
     2   .000     23  1.900                                                     
  local pseudopotential read in
  partial core-charges read in
  atomic valenz-charges read in
  non local Contribution for L=           0  read in
    real space projection operators read in
  non local Contribution for L=           0  read in
    real space projection operators read in
  non local Contribution for L=           1  read in
    real space projection operators read in
  non local Contribution for L=           1  read in
    real space projection operators read in
    PAW grid and wavefunctions read in
 
   number of l-projection  operators is LMAX  =           4
   number of lm-projection operators is LMMAX =           8
 

 ----------------------------------------------------------------------------- 
|                                                                             |
|  ADVICE TO THIS USER RUNNING 'VASP/VAMP'   (HEAR YOUR MASTER'S VOICE ...):  |
|                                                                             |
|      You have a (more or less) 'large supercell' and for larger cells       |
|      it might be more efficient to use real space projection operators      |
|      So try LREAL= Auto  in the INCAR   file.                               |
|      Mind: If you want to do a very accurate calculations keep the          |
|      reciprocal projection scheme          (i.e. LREAL=.FALSE.)             |
|                                                                             |
 ----------------------------------------------------------------------------- 

 PAW_PBE Cr 06Sep2000                   :
 energy of atom  1       EATOM= -276.9744
 kinetic energy error for atom=    0.0156 (will be added to EATOM!!)
  PAW_PBE S 17Jan2003                   :
 energy of atom  2       EATOM= -276.8230
 kinetic energy error for atom=    0.0122 (will be added to EATOM!!)
 
 
 POSCAR: crystal structure from CrS2 with Hexagin
  positions in cartesian coordinates
  No initial velocities read in
 exchange correlation table for  LEXCH =        8
   RHO(1)=    0.500       N(1)  =     2000
   RHO(2)=  100.500       N(2)  =     4000
 


--------------------------------------------------------------------------------------------------------


 ion  position               nearest neighbor table
   1  0.000  0.000  0.000-  23 2.34  14 2.34  11 2.36  10 2.36  27 2.36  26 2.36
   2  1.000  0.333  0.000-  25 2.34  10 2.34  13 2.36  12 2.36  22 2.36  23 2.36
   3  0.000  0.667  0.000-  27 2.34  12 2.34  14 2.36  15 2.36  24 2.36  25 2.36
   4  0.333  0.000  0.000-  11 2.34  20 2.34  17 2.36  16 2.36  15 2.36  14 2.36
   5  0.333  0.333  0.000-  13 2.34  16 2.34  19 2.36  18 2.36  11 2.36  10 2.36
   6  0.333  0.667  0.000-  15 2.34  18 2.34  20 2.36  21 2.36  13 2.36  12 2.36
   7  0.667  0.000  0.000-  17 2.34  26 2.34  23 2.36  22 2.36  21 2.36  20 2.36
   8  0.667  0.333  0.000-  19 2.34  22 2.34  25 2.36  24 2.36  17 2.36  16 2.36
   9  0.667  0.667  0.000-  21 2.34  24 2.34  27 2.36  26 2.36  19 2.36  18 2.36
  10  0.111  0.222  0.955-   2 2.34   1 2.36   5 2.36
  11  0.222  0.111  0.045-   4 2.34   1 2.36   5 2.36
  12  0.111  0.556  0.955-   3 2.34   2 2.36   6 2.36
  13  0.222  0.444  0.045-   5 2.34   2 2.36   6 2.36
  14  0.111  0.889  0.955-   1 2.34   3 2.36   4 2.36
  15  0.222  0.777  0.045-   6 2.34   3 2.36   4 2.36
  16  0.444  0.222  0.955-   5 2.34   4 2.36   8 2.36
  17  0.556  0.111  0.045-   7 2.34   4 2.36   8 2.36
  18  0.444  0.556  0.955-   6 2.34   5 2.36   9 2.36
  19  0.556  0.444  0.045-   8 2.34   5 2.36   9 2.36
  20  0.444  0.889  0.955-   4 2.34   6 2.36   7 2.36
  21  0.556  0.777  0.045-   9 2.34   6 2.36   7 2.36
  22  0.777  0.222  0.955-   8 2.34   7 2.36   2 2.36
  23  0.889  0.111  0.045-   1 2.34   7 2.36   2 2.36
  24  0.777  0.556  0.955-   9 2.34   8 2.36   3 2.36
  25  0.889  0.444  0.045-   2 2.34   8 2.36   3 2.36
  26  0.777  0.889  0.955-   7 2.34   9 2.36   1 2.36
  27  0.889  0.777  0.045-   3 2.34   9 2.36   1 2.36
 

IMPORTANT INFORMATION: All symmetrisations will be switched off!
NOSYMM: (Re-)initialisation of all symmetry stuff for point group C_1.

 
 
 KPOINTS: K-POINTS 	#supercell of CrS2 in hexagona

Automatic generation of k-mesh.
Space group operators:
 irot       det(A)        alpha          n_x          n_y          n_z        tau_x        tau_y        tau_z
    1     1.000000     0.000000     1.000000     0.000000     0.000000     0.000000     0.000000     0.000000
 
 Subroutine IBZKPT returns following result:
 ===========================================
 
 Found     34 irreducible k-points:
 
 Following reciprocal coordinates:
            Coordinates               Weight
  0.000000  0.000000  0.000000      1.000000
  0.125000  0.000000  0.000000      2.000000
  0.250000  0.000000  0.000000      2.000000
  0.375000  0.000000  0.000000      2.000000
  0.500000  0.000000  0.000000      1.000000
  0.000000  0.125000  0.000000      2.000000
  0.125000  0.125000  0.000000      2.000000
  0.250000  0.125000  0.000000      2.000000
  0.375000  0.125000  0.000000      2.000000
  0.500000  0.125000  0.000000      2.000000
 -0.375000  0.125000  0.000000      2.000000
 -0.250000  0.125000  0.000000      2.000000
 -0.125000  0.125000  0.000000      2.000000
  0.000000  0.250000  0.000000      2.000000
  0.125000  0.250000  0.000000      2.000000
  0.250000  0.250000  0.000000      2.000000
  0.375000  0.250000  0.000000      2.000000
  0.500000  0.250000  0.000000      2.000000
 -0.375000  0.250000  0.000000      2.000000
 -0.250000  0.250000  0.000000      2.000000
 -0.125000  0.250000  0.000000      2.000000
 -0.000000  0.375000  0.000000      2.000000
  0.125000  0.375000  0.000000      2.000000
  0.250000  0.375000  0.000000      2.000000
  0.375000  0.375000  0.000000      2.000000
  0.500000  0.375000  0.000000      2.000000
 -0.375000  0.375000  0.000000      2.000000
 -0.250000  0.375000  0.000000      2.000000
 -0.125000  0.375000  0.000000      2.000000
  0.000000  0.500000  0.000000      1.000000
  0.125000  0.500000  0.000000      2.000000
  0.250000  0.500000  0.000000      2.000000
  0.375000  0.500000  0.000000      2.000000
  0.500000  0.500000  0.000000      1.000000
 
 Following cartesian coordinates:
            Coordinates               Weight
  0.000000  0.000000  0.000000      1.000000
  0.007209  0.012401  0.000000      2.000000
  0.014418  0.024802  0.000000      2.000000
  0.021626  0.037202  0.000000      2.000000
  0.028835  0.049603  0.000000      1.000000
 -0.007209  0.012401  0.000000      2.000000
  0.000000  0.024802  0.000000      2.000000
  0.007209  0.037202  0.000000      2.000000
  0.014418  0.049603  0.000000      2.000000
  0.021626  0.062004  0.000000      2.000000
 -0.028835 -0.024802  0.000000      2.000000
 -0.021626 -0.012401  0.000000      2.000000
 -0.014418  0.000000  0.000000      2.000000
 -0.014418  0.024802  0.000000      2.000000
 -0.007209  0.037202  0.000000      2.000000
  0.000000  0.049603  0.000000      2.000000
  0.007209  0.062004  0.000000      2.000000
  0.014418  0.074405  0.000000      2.000000
 -0.036044 -0.012401  0.000000      2.000000
 -0.028835  0.000000  0.000000      2.000000
 -0.021626  0.012401  0.000000      2.000000
 -0.021626  0.037202  0.000000      2.000000
 -0.014418  0.049603  0.000000      2.000000
 -0.007209  0.062004  0.000000      2.000000
  0.000000  0.074405  0.000000      2.000000
  0.007209  0.086806  0.000000      2.000000
 -0.043253  0.000000  0.000000      2.000000
 -0.036044  0.012401  0.000000      2.000000
 -0.028835  0.024802  0.000000      2.000000
 -0.028835  0.049603  0.000000      1.000000
 -0.021626  0.062004  0.000000      2.000000
 -0.014418  0.074405  0.000000      2.000000
 -0.007209  0.086806  0.000000      2.000000
  0.000000  0.099206  0.000000      1.000000
 


--------------------------------------------------------------------------------------------------------




 Dimension of arrays:
   k-points           NKPTS =     34   k-points in BZ     NKDIM =     34   number of bands    NBANDS=    128
   number of dos      NEDOS =    301   number of ions     NIONS =     27
   non local maximal  LDIM  =      6   non local SUM 2l+1 LMDIM =     18
   total plane-waves  NPLWV = 222264
   max r-space proj   IRMAX =      1   max aug-charges    IRDMAX=   4530
   dimension x,y,z NGX =    42 NGY =   42 NGZ =  126
   dimension x,y,z NGXF=    84 NGYF=   84 NGZF=  252
   support grid    NGXF=    84 NGYF=   84 NGZF=  252
   ions per type =               9  18
 NGX,Y,Z   is equivalent  to a cutoff of   6.96,  6.96,  6.98 a.u.
 NGXF,Y,Z  is equivalent  to a cutoff of  13.92, 13.92, 13.96 a.u.


 I would recommend the setting:
   dimension x,y,z NGX =    41 NGY =   41 NGZ =  123
 SYSTEM =  unknown system                          
 POSCAR =  crystal structure from CrS2 with Hexagin

 Startparameter for this run:
   NWRITE =      2    write-flag & timer
   PREC   = normal    normal or accurate (medium, high low for compatibility)
   ISTART =      0    job   : 0-new  1-cont  2-samecut
   ICHARG =      2    charge: 1-file 2-atom 10-const
   ISPIN  =      1    spin polarized calculation?
   LNONCOLLINEAR =      F non collinear calculations
   LSORBIT =      F    spin-orbit coupling
   INIWAV =      1    electr: 0-lowe 1-rand  2-diag
   LASPH  =      F    aspherical Exc in radial PAW
   METAGGA=      F    non-selfconsistent MetaGGA calc.

 Electronic Relaxation 1
   ENCUT  =  280.0 eV  20.58 Ry    4.54 a.u.  13.68 13.68 40.93*2*pi/ulx,y,z
   ENINI  =  280.0     initial cutoff
   ENAUG  =  402.1 eV  augmentation charge cutoff
   NELM   =     60;   NELMIN=  2; NELMDL= -5     # of ELM steps 
   EDIFF  = 0.1E-03   stopping-criterion for ELM
   LREAL  =      F    real-space projection
   NLSPLINE    = F    spline interpolate recip. space projectors
   LCOMPAT=      F    compatible to vasp.4.4
   GGA_COMPAT  = T    GGA compatible to vasp.4.4-vasp.4.6
   LMAXPAW     = -100 max onsite density
   LMAXMIX     =    2 max onsite mixed and CHGCAR
   VOSKOWN=      0    Vosko Wilk Nusair interpolation
   ROPT   =    0.00000   0.00000
 Ionic relaxation
   EDIFFG = 0.1E-02   stopping-criterion for IOM
   NSW    =    100    number of steps for IOM
   NBLOCK =      1;   KBLOCK =    100    inner block; outer block 
   IBRION =      1    ionic relax: 0-MD 1-quasi-New 2-CG
   NFREE  =      0    steps in history (QN), initial steepest desc. (CG)
   ISIF   =      3    stress and relaxation
   IWAVPR =     11    prediction:  0-non 1-charg 2-wave 3-comb
   ISYM   =      0    0-nonsym 1-usesym 2-fastsym
   LCORR  =      T    Harris-Foulkes like correction to forces

   POTIM  = 0.5000    time-step for ionic-motion
   TEIN   =    0.0    initial temperature
   TEBEG  =    0.0;   TEEND  =   0.0 temperature during run
   SMASS  =  -3.00    Nose mass-parameter (am)
   estimated Nose-frequenzy (Omega)   =  0.10E-29 period in steps =****** mass=  -0.230E-26a.u.
   SCALEE = 1.0000    scale energy and forces
   NPACO  =    256;   APACO  = 16.0  distance and # of slots for P.C.
   PSTRESS=    0.0 pullay stress

  Mass of Ions in am
   POMASS =  52.00 32.07
  Ionic Valenz
   ZVAL   =   6.00  6.00
  Atomic Wigner-Seitz radii
   RWIGS  =  -1.00 -1.00
  virtual crystal weights 
   VCA    =   1.00  1.00
   NELECT =     162.0000    total number of electrons
   NUPDOWN=      -1.0000    fix difference up-down

 DOS related values:
   EMIN   =  10.00;   EMAX   =-10.00  energy-range for DOS
   EFERMI =   0.00
   ISMEAR =     0;   SIGMA  =   0.20  broadening in eV -4-tet -1-fermi 0-gaus

 Electronic relaxation 2 (details)
   IALGO  =     38    algorithm
   LDIAG  =      T    sub-space diagonalisation (order eigenvalues)
   LSUBROT=      F    optimize rotation matrix (better conditioning)
   TURBO    =      0    0=normal 1=particle mesh
   IRESTART =      0    0=no restart 2=restart with 2 vectors
   NREBOOT  =      0    no. of reboots
   NMIN     =      0    reboot dimension
   EREF     =   0.00    reference energy to select bands
   IMIX   =      4    mixing-type and parameters
     AMIX     =   0.40;   BMIX     =  1.00
     AMIX_MAG =   1.60;   BMIX_MAG =  1.00
     AMIN     =   0.10
     WC   =   100.;   INIMIX=   1;  MIXPRE=   1;  MAXMIX= -45

 Intra band minimization:
   WEIMIN = 0.0010     energy-eigenvalue tresh-hold
   EBREAK =  0.20E-06  absolut break condition
   DEPER  =   0.30     relativ break condition  

   TIME   =   0.40     timestep for ELM

  volume/ion in A,a.u.               =      97.10       655.29
  Fermi-wavevector in a.u.,A,eV,Ry     =   0.647211  1.223052  5.699245  0.418883
  Thomas-Fermi vector in A             =   1.715446
 
 Write flags
   LWAVE  =      F    write WAVECAR
   LCHARG =      F    write CHGCAR
   LVTOT  =      F    write LOCPOT, total local potential
   LVHAR  =      F    write LOCPOT, Hartree potential only
   LELF   =      F    write electronic localiz. function (ELF)
   LORBIT =      0    0 simple, 1 ext, 2 COOP (PROOUT)


 Dipole corrections
   LMONO  =      F    monopole corrections only (constant potential shift)
   LDIPOL =      F    correct potential (dipole corrections)
   IDIPOL =      0    1-x, 2-y, 3-z, 4-all directions 
   EPSILON=  1.0000000 bulk dielectric constant

 Exchange correlation treatment:
   GGA     =    --    GGA type
   LEXCH   =     8    internal setting for exchange type
   VOSKOWN=      0    Vosko Wilk Nusair interpolation
   LHFCALC =     F    Hartree Fock is set to
   LHFONE  =     F    Hartree Fock one center treatment
   AEXX    =    0.0000 exact exchange contribution

 Linear response parameters
   LEPSILON=     F    determine dielectric tensor
   LRPA    =     F    only Hartree local field effects (RPA)
   LNABLA  =     F    use nabla operator in PAW spheres
   LVEL    =     F    velocity operator in full k-point grid
   LINTERFAST=   F  fast interpolation
   KINTER  =     0    interpolate to denser k-point grid
   CSHIFT  =0.1000    complex shift for real part using Kramers Kronig
   OMEGAMAX=  -1.0    maximum frequency
   DEG_THRESHOLD= 0.2000000E-02 threshold for treating states as degnerate
   RTIME   =    0.100 relaxation time in fs

 Orbital magnetization related:
   ORBITALMAG=     F  switch on orbital magnetization
   LCHIMAG   =     F  perturbation theory with respect to B field
   DQ        =  0.001000  dq finite difference perturbation B field



--------------------------------------------------------------------------------------------------------


 quasi-Newton-method for relaxation of ions
 charge density and potential will be updated during run
 non-spin polarized calculation
 Variant of blocked Davidson
 Davidson routine will perform the subspace rotation
 perform sub-space diagonalisation
    after iterative eigenvector-optimisation
 modified Broyden-mixing scheme, WC =      100.0
 initial mixing is a Kerker type mixing with AMIX =  0.4000 and BMIX =      1.0000
 Hartree-type preconditioning will be used
 using additional bands           47
 reciprocal scheme for non local part
 use partial core corrections
 calculate Harris-corrections to forces 
   (improved forces if not selfconsistent)
 use gradient corrections 
 use of overlap-Matrix (Vanderbilt PP)
 Gauss-broadening in eV      SIGMA  =   0.20


--------------------------------------------------------------------------------------------------------


  energy-cutoff  :      280.00
  volume of cell :     2621.81
      direct lattice vectors                 reciprocal lattice vectors
     8.669999960  5.039999894  0.000000000     0.057670129  0.099206348  0.000000000
    -8.669999821  5.040000133  0.000000000    -0.057670126  0.099206350  0.000000000
     0.000000000  0.000000000 30.000000000     0.000000000  0.000000000  0.033333333

  length of vectors
    10.028484344 10.028484344 30.000000000     0.114750788  0.114750788  0.033333333


 
 k-points in units of 2pi/SCALE and weight: K-POINTS 	#supercell of CrS2 in hexagona
   0.00000000  0.00000000  0.00000000       0.016
   0.00720877  0.01240079  0.00000000       0.031
   0.01441753  0.02480159  0.00000000       0.031
   0.02162630  0.03720238  0.00000000       0.031
   0.02883506  0.04960317  0.00000000       0.016
  -0.00720877  0.01240079  0.00000000       0.031
   0.00000000  0.02480159  0.00000000       0.031
   0.00720877  0.03720238  0.00000000       0.031
   0.01441753  0.04960317  0.00000000       0.031
   0.02162630  0.06200397  0.00000000       0.031
  -0.02883506 -0.02480159  0.00000000       0.031
  -0.02162630 -0.01240079  0.00000000       0.031
  -0.01441753  0.00000000  0.00000000       0.031
  -0.01441753  0.02480159  0.00000000       0.031
  -0.00720877  0.03720238  0.00000000       0.031
   0.00000000  0.04960317  0.00000000       0.031
   0.00720877  0.06200397  0.00000000       0.031
   0.01441753  0.07440476  0.00000000       0.031
  -0.03604383 -0.01240079  0.00000000       0.031
  -0.02883506  0.00000000  0.00000000       0.031
  -0.02162630  0.01240079  0.00000000       0.031
  -0.02162630  0.03720238  0.00000000       0.031
  -0.01441753  0.04960317  0.00000000       0.031
  -0.00720877  0.06200397  0.00000000       0.031
   0.00000000  0.07440476  0.00000000       0.031
   0.00720877  0.08680556  0.00000000       0.031
  -0.04325260  0.00000000  0.00000000       0.031
  -0.03604383  0.01240079  0.00000000       0.031
  -0.02883506  0.02480159  0.00000000       0.031
  -0.02883506  0.04960317  0.00000000       0.016
  -0.02162630  0.06200397  0.00000000       0.031
  -0.01441753  0.07440476  0.00000000       0.031
  -0.00720876  0.08680556  0.00000000       0.031
   0.00000000  0.09920635  0.00000000       0.016
 
 k-points in reciprocal lattice and weights: K-POINTS 	#supercell of CrS2 in hexagona
   0.00000000  0.00000000  0.00000000       0.016
   0.12500000  0.00000000  0.00000000       0.031
   0.25000000  0.00000000  0.00000000       0.031
   0.37500000  0.00000000  0.00000000       0.031
   0.50000000  0.00000000  0.00000000       0.016
   0.00000000  0.12500000  0.00000000       0.031
   0.12500000  0.12500000  0.00000000       0.031
   0.25000000  0.12500000  0.00000000       0.031
   0.37500000  0.12500000  0.00000000       0.031
   0.50000000  0.12500000  0.00000000       0.031
  -0.37500000  0.12500000  0.00000000       0.031
  -0.25000000  0.12500000  0.00000000       0.031
  -0.12500000  0.12500000  0.00000000       0.031
   0.00000000  0.25000000  0.00000000       0.031
   0.12500000  0.25000000  0.00000000       0.031
   0.25000000  0.25000000  0.00000000       0.031
   0.37500000  0.25000000  0.00000000       0.031
   0.50000000  0.25000000  0.00000000       0.031
  -0.37500000  0.25000000  0.00000000       0.031
  -0.25000000  0.25000000  0.00000000       0.031
  -0.12500000  0.25000000  0.00000000       0.031
  -0.00000000  0.37500000  0.00000000       0.031
   0.12500000  0.37500000  0.00000000       0.031
   0.25000000  0.37500000  0.00000000       0.031
   0.37500000  0.37500000  0.00000000       0.031
   0.50000000  0.37500000  0.00000000       0.031
  -0.37500000  0.37500000  0.00000000       0.031
  -0.25000000  0.37500000  0.00000000       0.031
  -0.12500000  0.37500000  0.00000000       0.031
   0.00000000  0.50000000  0.00000000       0.016
   0.12500000  0.50000000  0.00000000       0.031
   0.25000000  0.50000000  0.00000000       0.031
   0.37500000  0.50000000  0.00000000       0.031
   0.50000000  0.50000000  0.00000000       0.016
 
 position of ions in fractional coordinates (direct lattice) 
   0.00000000  0.00000000  0.00000000
   1.00000000  0.33333334  0.00000000
   0.00000000  0.66666669  0.00000000
   0.33333334  0.00000000  0.00000000
   0.33333334  0.33333334  0.00000000
   0.33333334  0.66666669  0.00000000
   0.66666669  0.00000000  0.00000000
   0.66666669  0.33333334  0.00000000
   0.66666669  0.66666669  0.00000000
   0.11068511  0.22244981  0.95539999
   0.22244981  0.11068511  0.04460000
   0.11068511  0.55578315  0.95539999
   0.22244981  0.44401845  0.04460000
   0.11068511  0.88911647  0.95539999
   0.22244981  0.77735180  0.04460000
   0.44401845  0.22244981  0.95539999
   0.55578315  0.11068511  0.04460000
   0.44401845  0.55578315  0.95539999
   0.55578315  0.44401845  0.04460000
   0.44401845  0.88911647  0.95539999
   0.55578315  0.77735180  0.04460000
   0.77735180  0.22244981  0.95539999
   0.88911647  0.11068511  0.04460000
   0.77735180  0.55578315  0.95539999
   0.88911647  0.44401845  0.04460000
   0.77735180  0.88911647  0.95539999
   0.88911647  0.77735180  0.04460000
 
 position of ions in cartesian coordinates  (Angst):
   0.00000000  0.00000000  0.00000000
   5.77999993  6.71999999  0.00000000
  -5.78000005  3.36000019  0.00000000
   2.89000007  1.68000002  0.00000000
   0.00000005  3.36000011  0.00000000
  -2.88999998  5.04000020  0.00000000
   5.78000015  3.36000003  0.00000000
   2.89000012  5.04000012  0.00000000
   0.00000009  6.72000022  0.00000000
  -0.96899991  1.67900001 28.66199970
   0.96899995  1.67899998  1.33799996
  -3.85899993  3.35900011 28.66199970
  -1.92100007  3.35900008  1.33799996
  -6.74899970  5.03900005 28.66199970
  -4.81100010  5.03900017  1.33799996
   1.92100017  3.35900003 28.66199970
   3.85900003  3.35900000  1.33799996
  -0.96899986  5.03900012 28.66199970
   0.96900000  5.03900009  1.33799996
  -3.85899963  6.71900006 28.66199970
  -1.92100003  6.71900019  1.33799996
   4.81100024  5.03900004 28.66199970
   6.74899984  5.03899987  1.33799996
   1.92100021  6.71900014 28.66199970
   3.85899981  6.71899996  1.33799996
  -0.96899956  8.39900008 28.66199970
   0.96899979  8.39900005  1.33799996
 


--------------------------------------------------------------------------------------------------------


 k-point  1 :   0.0000 0.0000 0.0000  plane waves:   27959
 k-point  2 :   0.1250 0.0000 0.0000  plane waves:   27889
 k-point  3 :   0.2500 0.0000 0.0000  plane waves:   27875
 k-point  4 :   0.3750 0.0000 0.0000  plane waves:   27893
 k-point  5 :   0.5000 0.0000 0.0000  plane waves:   27932
 k-point  6 :   0.0000 0.1250 0.0000  plane waves:   27889
 k-point  7 :   0.1250 0.1250 0.0000  plane waves:   27906
 k-point  8 :   0.2500 0.1250 0.0000  plane waves:   27898
 k-point  9 :   0.3750 0.1250 0.0000  plane waves:   27888
 k-point 10 :   0.5000 0.1250 0.0000  plane waves:   27873
 k-point 11 :  -0.3750 0.1250 0.0000  plane waves:   27874
 k-point 12 :  -0.2500 0.1250 0.0000  plane waves:   27895
 k-point 13 :  -0.1250 0.1250 0.0000  plane waves:   27879
 k-point 14 :   0.0000 0.2500 0.0000  plane waves:   27875
 k-point 15 :   0.1250 0.2500 0.0000  plane waves:   27898
 k-point 16 :   0.2500 0.2500 0.0000  plane waves:   27920
 k-point 17 :   0.3750 0.2500 0.0000  plane waves:   27901
 k-point 18 :   0.5000 0.2500 0.0000  plane waves:   27875
 k-point 19 :  -0.3750 0.2500 0.0000  plane waves:   27894
 k-point 20 :  -0.2500 0.2500 0.0000  plane waves:   27870
 k-point 21 :  -0.1250 0.2500 0.0000  plane waves:   27895
 k-point 22 :  -0.0000 0.3750 0.0000  plane waves:   27893
 k-point 23 :   0.1250 0.3750 0.0000  plane waves:   27888
 k-point 24 :   0.2500 0.3750 0.0000  plane waves:   27901
 k-point 25 :   0.3750 0.3750 0.0000  plane waves:   27860
 k-point 26 :   0.5000 0.3750 0.0000  plane waves:   27895
 k-point 27 :  -0.3750 0.3750 0.0000  plane waves:   27858
 k-point 28 :  -0.2500 0.3750 0.0000  plane waves:   27894
 k-point 29 :  -0.1250 0.3750 0.0000  plane waves:   27874
 k-point 30 :   0.0000 0.5000 0.0000  plane waves:   27932
 k-point 31 :   0.1250 0.5000 0.0000  plane waves:   27873
 k-point 32 :   0.2500 0.5000 0.0000  plane waves:   27875
 k-point 33 :   0.3750 0.5000 0.0000  plane waves:   27895
 k-point 34 :   0.5000 0.5000 0.0000  plane waves:   27910

 maximum and minimum number of plane-waves per node :     27959    27858

 maximum number of plane-waves:     27959
 maximum index in each direction: 
   IXMAX=   14   IYMAX=   13   IZMAX=   40
   IXMIN=  -14   IYMIN=  -14   IZMIN=  -40

 WARNING: aliasing errors must be expected set NGX to  58 to avoid them
 WARNING: aliasing errors must be expected set NGY to  56 to avoid them
 WARNING: aliasing errors must be expected set NGZ to 162 to avoid them
 aliasing errors are usually negligible using standard VASP settings
 and one can safely disregard these warnings

 serial   3D FFT for wavefunctions

 total amount of memory used by VASP on root node   392763. kBytes
========================================================================

   base      :      30000. kBytes
   nonl-proj :     285944. kBytes
   fftplans  :       2791. kBytes
   grid      :      12055. kBytes
   one-center:        419. kBytes
   wavefun   :      61554. kBytes
 
     INWAV:  cpu time    0.0001: real time    0.0002
 Broyden mixing: mesh for mixing (old mesh)
   NGX = 27   NGY = 27   NGZ = 81
  (NGX  = 84   NGY  = 84   NGZ  =252)
  gives a total of  59049 points

 initial charge density was supplied:
 charge density of overlapping atoms calculated
 number of electron     162.0000000 magnetization 
 keeping initial charge density in first step


--------------------------------------------------------------------------------------------------------


 Maximum index for augmentation-charges          147 (set IRDMAX)


--------------------------------------------------------------------------------------------------------


 First call to EWALD:  gamma=   0.129
 Maximum number of real-space cells 4x 4x 2
 Maximum number of reciprocal cells 2x 2x 5

 FEWALD executed in parallel
    FEWALD:  cpu time    0.0022: real time    0.0032


----------------------------------------- Iteration    1(   1)  ---------------------------------------


    POTLOK:  cpu time    0.0473: real time    0.0582
    SETDIJ:  cpu time    0.0072: real time    0.0089
     EDDAV:  cpu time   27.2747: real time   27.5580
       DOS:  cpu time    0.0020: real time    0.0039
    --------------------------------------------
      LOOP:  cpu time   27.3357: real time   27.6345

 eigenvalue-minimisations  :  8704
 total energy-change (2. order) : 0.1150153E+04  (-0.3649487E+04)
 number of electron     162.0000000 magnetization 
 augmentation part      162.0000000 magnetization 

 Free energy of the ion-electron system (eV)
  ---------------------------------------------------
  alpha Z        PSCENC =        66.26837034
  Ewald energy   TEWEN  =     43618.70461814
  -Hartree energ DENC   =    -50141.92090626
  -exchange      EXHF   =         0.00000000
  -V(xc)+E(xc)   XCENC  =        40.78482037
  PAW double counting   =      3826.37693678    -3590.23280660
  entropy T*S    EENTRO =        -0.75306371
  eigenvalues    EBANDS =      -144.29951521
  atomic energy  EATOM  =      7475.22437441
  Solvation  Ediel_sol  =         0.00000000
  ---------------------------------------------------
  free energy    TOTEN  =      1150.15282826 eV

  energy without entropy =     1150.90589197  energy(sigma->0) =     1150.52936011


--------------------------------------------------------------------------------------------------------




----------------------------------------- Iteration    1(   2)  ---------------------------------------


     EDDAV:  cpu time   30.0168: real time   30.1063
       DOS:  cpu time    0.0011: real time    0.0011
    --------------------------------------------
      LOOP:  cpu time   30.0200: real time   30.1231

 eigenvalue-minimisations  :  9856
 total energy-change (2. order) :-0.1089956E+04  (-0.1039464E+04)
 number of electron     162.0000000 magnetization 
 augmentation part      162.0000000 magnetization 

 Free energy of the ion-electron system (eV)
  ---------------------------------------------------
  alpha Z        PSCENC =        66.26837034
  Ewald energy   TEWEN  =     43618.70461814
  -Hartree energ DENC   =    -50141.92090626
  -exchange      EXHF   =         0.00000000
  -V(xc)+E(xc)   XCENC  =        40.78482037
  PAW double counting   =      3826.37693678    -3590.23280660
  entropy T*S    EENTRO =        -0.40828548
  eigenvalues    EBANDS =     -1234.60068990
  atomic energy  EATOM  =      7475.22437441
  Solvation  Ediel_sol  =         0.00000000
  ---------------------------------------------------
  free energy    TOTEN  =        60.19643180 eV

  energy without entropy =       60.60471727  energy(sigma->0) =       60.40057454


--------------------------------------------------------------------------------------------------------




----------------------------------------- Iteration    1(   3)  ---------------------------------------


     EDDAV:  cpu time   38.3470: real time   38.4395
       DOS:  cpu time    0.0011: real time    0.0011
    --------------------------------------------
      LOOP:  cpu time   38.3492: real time   38.4461

 eigenvalue-minimisations  : 13216
 total energy-change (2. order) :-0.2519612E+03  (-0.2428470E+03)
 number of electron     162.0000000 magnetization 
 augmentation part      162.0000000 magnetization 

 Free energy of the ion-electron system (eV)
  ---------------------------------------------------
  alpha Z        PSCENC =        66.26837034
  Ewald energy   TEWEN  =     43618.70461814
  -Hartree energ DENC   =    -50141.92090626
  -exchange      EXHF   =         0.00000000
  -V(xc)+E(xc)   XCENC  =        40.78482037
  PAW double counting   =      3826.37693678    -3590.23280660
  entropy T*S    EENTRO =        -0.34386047
  eigenvalues    EBANDS =     -1486.62633949
  atomic energy  EATOM  =      7475.22437441
  Solvation  Ediel_sol  =         0.00000000
  ---------------------------------------------------
  free energy    TOTEN  =      -191.76479277 eV

  energy without entropy =     -191.42093231  energy(sigma->0) =     -191.59286254


--------------------------------------------------------------------------------------------------------




----------------------------------------- Iteration    1(   4)  ---------------------------------------


     EDDAV:  cpu time   33.2419: real time   33.3216
       DOS:  cpu time    0.0011: real time    0.0011
    --------------------------------------------
      LOOP:  cpu time   33.2441: real time   33.3288

 eigenvalue-minimisations  : 11200
 total energy-change (2. order) :-0.1426411E+02  (-0.1408234E+02)
 number of electron     162.0000000 magnetization 
 augmentation part      162.0000000 magnetization 

 Free energy of the ion-electron system (eV)
  ---------------------------------------------------
  alpha Z        PSCENC =        66.26837034
  Ewald energy   TEWEN  =     43618.70461814
  -Hartree energ DENC   =    -50141.92090626
  -exchange      EXHF   =         0.00000000
  -V(xc)+E(xc)   XCENC  =        40.78482037
  PAW double counting   =      3826.37693678    -3590.23280660
  entropy T*S    EENTRO =        -0.38733596
  eigenvalues    EBANDS =     -1500.84697736
  atomic energy  EATOM  =      7475.22437441
  Solvation  Ediel_sol  =         0.00000000
  ---------------------------------------------------
  free energy    TOTEN  =      -206.02890614 eV

  energy without entropy =     -205.64157018  energy(sigma->0) =     -205.83523816


--------------------------------------------------------------------------------------------------------




----------------------------------------- Iteration    1(   5)  ---------------------------------------


     EDDAV:  cpu time   36.2304: real time   36.3190
       DOS:  cpu time    0.0012: real time    0.0012
    CHARGE:  cpu time    0.6308: real time    0.6372
    MIXING:  cpu time    0.0033: real time    0.0062
    --------------------------------------------
      LOOP:  cpu time   36.8680: real time   36.9685

 eigenvalue-minimisations  : 12384
 total energy-change (2. order) :-0.4862335E+00  (-0.4855805E+00)
 number of electron     162.0000038 magnetization 
 augmentation part       -3.8073468 magnetization 

 Broyden mixing:
  rms(total) = 0.40343E+01    rms(broyden)= 0.40340E+01
  rms(prec ) = 0.42838E+01
  weight for this iteration     100.00

 Free energy of the ion-electron system (eV)
  ---------------------------------------------------
  alpha Z        PSCENC =        66.26837034
  Ewald energy   TEWEN  =     43618.70461814
  -Hartree energ DENC   =    -50141.92090626
  -exchange      EXHF   =         0.00000000
  -V(xc)+E(xc)   XCENC  =        40.78482037
  PAW double counting   =      3826.37693678    -3590.23280660
  entropy T*S    EENTRO =        -0.38987723
  eigenvalues    EBANDS =     -1501.33066957
  atomic energy  EATOM  =      7475.22437441
  Solvation  Ediel_sol  =         0.00000000
  ---------------------------------------------------
  free energy    TOTEN  =      -206.51513962 eV

  energy without entropy =     -206.12526239  energy(sigma->0) =     -206.32020101


--------------------------------------------------------------------------------------------------------




----------------------------------------- Iteration    1(   6)  ---------------------------------------


    POTLOK:  cpu time    0.0368: real time    0.0369
    SETDIJ:  cpu time    0.0024: real time    0.0024
     EDDAV:  cpu time   37.8515: real time   37.9420
       DOS:  cpu time    0.0010: real time    0.0010
    CHARGE:  cpu time    0.5441: real time    0.5454
    MIXING:  cpu time    0.0038: real time    0.0635
    --------------------------------------------
      LOOP:  cpu time   38.4407: real time   38.5976

 eigenvalue-minimisations  : 13024
 total energy-change (2. order) :-0.9089707E+02  (-0.8995272E+02)
 number of electron     161.9999759 magnetization 
 augmentation part       42.4085539 magnetization 

 Broyden mixing:
  rms(total) = 0.10008E+02    rms(broyden)= 0.10007E+02
  rms(prec ) = 0.10731E+02
  weight for this iteration     100.00

 eigenvalues of (default mixing * dielectric matrix)
  average eigenvalue GAMMA=   0.2868
  0.2868

 Free energy of the ion-electron system (eV)
  ---------------------------------------------------
  alpha Z        PSCENC =        66.26837034
  Ewald energy   TEWEN  =     43618.70461814
  -Hartree energ DENC   =    -49972.70832207
  -exchange      EXHF   =         0.00000000
  -V(xc)+E(xc)   XCENC  =        44.78632078
  PAW double counting   =      3753.93778098    -3487.01753567
  entropy T*S    EENTRO =        -0.37163262
  eigenvalues    EBANDS =     -1796.23618430
  atomic energy  EATOM  =      7475.22437441
  Solvation  Ediel_sol  =         0.00000000
  ---------------------------------------------------
  free energy    TOTEN  =      -297.41221001 eV

  energy without entropy =     -297.04057739  energy(sigma->0) =     -297.22639370


--------------------------------------------------------------------------------------------------------




----------------------------------------- Iteration    1(   7)  ---------------------------------------


    POTLOK:  cpu time    0.0390: real time    0.0391
    SETDIJ:  cpu time    0.0023: real time    0.0023
     EDDAV:  cpu time   33.7869: real time   33.8684
       DOS:  cpu time    0.0013: real time    0.0013
    CHARGE:  cpu time    0.6271: real time    0.6287
    MIXING:  cpu time    0.0015: real time    0.0026
    --------------------------------------------
      LOOP:  cpu time   34.4598: real time   34.5490

 eigenvalue-minimisations  : 11392
 total energy-change (2. order) : 0.1246652E+03  (-0.4208193E+02)
 number of electron     161.9999995 magnetization 
 augmentation part        2.2892170 magnetization 

 Broyden mixing:
  rms(total) = 0.20277E+01    rms(broyden)= 0.20259E+01
  rms(prec ) = 0.21475E+01
  weight for this iteration     100.00

 eigenvalues of (default mixing * dielectric matrix)
  average eigenvalue GAMMA=   0.4711
  0.7133  0.2290

 Free energy of the ion-electron system (eV)
  ---------------------------------------------------
  alpha Z        PSCENC =        66.26837034
  Ewald energy   TEWEN  =     43618.70461814
  -Hartree energ DENC   =    -50143.16683700
  -exchange      EXHF   =         0.00000000
  -V(xc)+E(xc)   XCENC  =        42.67161125
  PAW double counting   =      4032.01544103    -3797.96152661
  entropy T*S    EENTRO =        -0.40550650
  eigenvalues    EBANDS =     -1466.09750761
  atomic energy  EATOM  =      7475.22437441
  Solvation  Ediel_sol  =         0.00000000
  ---------------------------------------------------
  free energy    TOTEN  =      -172.74696254 eV

  energy without entropy =     -172.34145605  energy(sigma->0) =     -172.54420930


--------------------------------------------------------------------------------------------------------




----------------------------------------- Iteration    1(   8)  ---------------------------------------


    POTLOK:  cpu time    0.0369: real time    0.0382
    SETDIJ:  cpu time    0.0023: real time    0.0023
     EDDAV:  cpu time   30.5114: real time   30.5847
       DOS:  cpu time    0.0004: real time    0.0012
    CHARGE:  cpu time    0.6267: real time    0.6282
    MIXING:  cpu time    0.0016: real time    0.0032
    --------------------------------------------
      LOOP:  cpu time   31.1824: real time   31.2599

 eigenvalue-minimisations  : 10048
 total energy-change (2. order) :-0.1427871E+01  (-0.5601133E+01)
 number of electron     161.9999988 magnetization 
 augmentation part        2.6675270 magnetization 

 Broyden mixing:
  rms(total) = 0.16968E+01    rms(broyden)= 0.16966E+01
  rms(prec ) = 0.17969E+01
  weight for this iteration     100.00

 eigenvalues of (default mixing * dielectric matrix)
  average eigenvalue GAMMA=   0.8968
  1.9191  0.2501  0.5211

 Free energy of the ion-electron system (eV)
  ---------------------------------------------------
  alpha Z        PSCENC =        66.26837034
  Ewald energy   TEWEN  =     43618.70461814
  -Hartree energ DENC   =    -50123.36180047
  -exchange      EXHF   =         0.00000000
  -V(xc)+E(xc)   XCENC  =        42.65104089
  PAW double counting   =      4090.37266606    -3856.51559112
  entropy T*S    EENTRO =        -0.45562297
  eigenvalues    EBANDS =     -1487.06288908
  atomic energy  EATOM  =      7475.22437441
  Solvation  Ediel_sol  =         0.00000000
  ---------------------------------------------------
  free energy    TOTEN  =      -174.17483382 eV

  energy without entropy =     -173.71921084  energy(sigma->0) =     -173.94702233


--------------------------------------------------------------------------------------------------------




----------------------------------------- Iteration    1(   9)  ---------------------------------------


    POTLOK:  cpu time    0.0350: real time    0.0351
    SETDIJ:  cpu time    0.0022: real time    0.0022
     EDDAV:  cpu time   40.0917: real time   40.1876
       DOS:  cpu time    0.0010: real time    0.0010
    CHARGE:  cpu time    0.6259: real time    0.6274
    MIXING:  cpu time    0.0015: real time    0.0015
    --------------------------------------------
      LOOP:  cpu time   40.7583: real time   40.8610

 eigenvalue-minimisations  : 13984
 total energy-change (2. order) : 0.4343394E+01  (-0.1579610E+01)
 number of electron     161.9999969 magnetization 
 augmentation part        8.0191387 magnetization 

 Broyden mixing:
  rms(total) = 0.29767E+00    rms(broyden)= 0.29700E+00
  rms(prec ) = 0.31929E+00
  weight for this iteration     100.00

 eigenvalues of (default mixing * dielectric matrix)
  average eigenvalue GAMMA=   0.7680
  1.8395  0.6109  0.2503  0.3715

 Free energy of the ion-electron system (eV)
  ---------------------------------------------------
  alpha Z        PSCENC =        66.26837034
  Ewald energy   TEWEN  =     43618.70461814
  -Hartree energ DENC   =    -50131.37670098
  -exchange      EXHF   =         0.00000000
  -V(xc)+E(xc)   XCENC  =        43.93442399
  PAW double counting   =      4218.43104340    -3983.61161560
  entropy T*S    EENTRO =        -0.63428952
  eigenvalues    EBANDS =     -1476.77166388
  atomic energy  EATOM  =      7475.22437441
  Solvation  Ediel_sol  =         0.00000000
  ---------------------------------------------------
  free energy    TOTEN  =      -169.83143972 eV

  energy without entropy =     -169.19715020  energy(sigma->0) =     -169.51429496


--------------------------------------------------------------------------------------------------------




----------------------------------------- Iteration    1(  10)  ---------------------------------------


    POTLOK:  cpu time    0.0339: real time    0.0343
    SETDIJ:  cpu time    0.0023: real time    0.0023
     EDDAV:  cpu time   39.3945: real time   39.4894
       DOS:  cpu time    0.0010: real time    0.0010
    CHARGE:  cpu time    0.6270: real time    0.6285
    MIXING:  cpu time    0.0015: real time    0.0015
    --------------------------------------------
      LOOP:  cpu time   40.0615: real time   40.1639

 eigenvalue-minimisations  : 13696
 total energy-change (2. order) :-0.5696212E+00  (-0.6402616E+00)
 number of electron     161.9999966 magnetization 
 augmentation part        7.7408375 magnetization 

 Broyden mixing:
  rms(total) = 0.11685E+01    rms(broyden)= 0.11677E+01
  rms(prec ) = 0.12662E+01
  weight for this iteration     100.00

 eigenvalues of (default mixing * dielectric matrix)
  average eigenvalue GAMMA=   0.7153
  1.3945  1.3945  0.2501  0.4680  0.0694

 Free energy of the ion-electron system (eV)
  ---------------------------------------------------
  alpha Z        PSCENC =        66.26837034
  Ewald energy   TEWEN  =     43618.70461814
  -Hartree energ DENC   =    -50138.37940972
  -exchange      EXHF   =         0.00000000
  -V(xc)+E(xc)   XCENC  =        43.96261481
  PAW double counting   =      4230.43427463    -3995.49781748
  entropy T*S    EENTRO =        -0.61713350
  eigenvalues    EBANDS =     -1470.50095252
  atomic energy  EATOM  =      7475.22437441
  Solvation  Ediel_sol  =         0.00000000
  ---------------------------------------------------
  free energy    TOTEN  =      -170.40106090 eV

  energy without entropy =     -169.78392740  energy(sigma->0) =     -170.09249415


--------------------------------------------------------------------------------------------------------




----------------------------------------- Iteration    1(  11)  ---------------------------------------


    POTLOK:  cpu time    0.0412: real time    0.0413
    SETDIJ:  cpu time    0.0024: real time    0.0024
     EDDAV:  cpu time   38.4001: real time   38.4937
       DOS:  cpu time    0.0010: real time    0.0010
    CHARGE:  cpu time    0.6221: real time    0.6236
    MIXING:  cpu time    0.0016: real time    0.0016
    --------------------------------------------
      LOOP:  cpu time   39.0706: real time   39.3799

 eigenvalue-minimisations  : 13312
 total energy-change (2. order) : 0.5265130E+00  (-0.5566931E+00)
 number of electron     161.9999963 magnetization 
 augmentation part        7.2311646 magnetization 

 Broyden mixing:
  rms(total) = 0.36903E+00    rms(broyden)= 0.36686E+00
  rms(prec ) = 0.39470E+00
  weight for this iteration     100.00

 eigenvalues of (default mixing * dielectric matrix)
  average eigenvalue GAMMA=   0.6969
  1.5538  1.5538  0.4465  0.2515  0.3116  0.0645

 Free energy of the ion-electron system (eV)
  ---------------------------------------------------
  alpha Z        PSCENC =        66.26837034
  Ewald energy   TEWEN  =     43618.70461814
  -Hartree energ DENC   =    -50147.56707788
  -exchange      EXHF   =         0.00000000
  -V(xc)+E(xc)   XCENC  =        43.99139466
  PAW double counting   =      4244.04634892    -4008.96569754
  entropy T*S    EENTRO =        -0.58133205
  eigenvalues    EBANDS =     -1460.99554690
  atomic energy  EATOM  =      7475.22437441
  Solvation  Ediel_sol  =         0.00000000
  ---------------------------------------------------
  free energy    TOTEN  =      -169.87454790 eV

  energy without entropy =     -169.29321585  energy(sigma->0) =     -169.58388187


--------------------------------------------------------------------------------------------------------




----------------------------------------- Iteration    1(  12)  ---------------------------------------


    POTLOK:  cpu time    0.0345: real time    0.0346
    SETDIJ:  cpu time    0.0023: real time    0.0023
     EDDAV:  cpu time   36.6288: real time   36.7178
       DOS:  cpu time    0.0015: real time    0.0015
    CHARGE:  cpu time    0.6237: real time    0.6252
    MIXING:  cpu time    0.0017: real time    0.0017
    --------------------------------------------
      LOOP:  cpu time   37.2938: real time   37.3898

 eigenvalue-minimisations  : 12576
 total energy-change (2. order) :-0.2796493E+00  (-0.4108807E+00)
 number of electron     161.9999964 magnetization 
 augmentation part        7.2954836 magnetization 

 Broyden mixing:
  rms(total) = 0.94319E+00    rms(broyden)= 0.94245E+00
  rms(prec ) = 0.10287E+01
  weight for this iteration     100.00

 eigenvalues of (default mixing * dielectric matrix)
  average eigenvalue GAMMA=   0.8332
  2.1640  2.1640  0.5981  0.5263  0.2505  0.0697  0.0598

 Free energy of the ion-electron system (eV)
  ---------------------------------------------------
  alpha Z        PSCENC =        66.26837034
  Ewald energy   TEWEN  =     43618.70461814
  -Hartree energ DENC   =    -50152.19513339
  -exchange      EXHF   =         0.00000000
  -V(xc)+E(xc)   XCENC  =        44.03671481
  PAW double counting   =      4252.26492806    -4016.92435135
  entropy T*S    EENTRO =        -0.58717911
  eigenvalues    EBANDS =     -1456.94653915
  atomic energy  EATOM  =      7475.22437441
  Solvation  Ediel_sol  =         0.00000000
  ---------------------------------------------------
  free energy    TOTEN  =      -170.15419724 eV

  energy without entropy =     -169.56701813  energy(sigma->0) =     -169.86060768


--------------------------------------------------------------------------------------------------------




----------------------------------------- Iteration    1(  13)  ---------------------------------------


    POTLOK:  cpu time    0.0349: real time    0.0350
    SETDIJ:  cpu time    0.0023: real time    0.0023
     EDDAV:  cpu time   39.6777: real time   39.7749
       DOS:  cpu time    0.0011: real time    0.0011
    CHARGE:  cpu time    0.6281: real time    0.6296
    MIXING:  cpu time    0.0008: real time    0.0018
    --------------------------------------------
      LOOP:  cpu time   40.3471: real time   40.4516

 eigenvalue-minimisations  : 13824
 total energy-change (2. order) : 0.3673275E+00  (-0.3519152E+00)
 number of electron     161.9999961 magnetization 
 augmentation part        7.6504664 magnetization 

 Broyden mixing:
  rms(total) = 0.21690E+00    rms(broyden)= 0.21493E+00
  rms(prec ) = 0.23582E+00
  weight for this iteration     100.00

 eigenvalues of (default mixing * dielectric matrix)
  average eigenvalue GAMMA=   0.7413
  2.1726  2.1726  0.5725  0.5428  0.2505  0.0942  0.0663  0.0594

 Free energy of the ion-electron system (eV)
  ---------------------------------------------------
  alpha Z        PSCENC =        66.26837034
  Ewald energy   TEWEN  =     43618.70461814
  -Hartree energ DENC   =    -50167.05233643
  -exchange      EXHF   =         0.00000000
  -V(xc)+E(xc)   XCENC  =        44.29949143
  PAW double counting   =      4278.75889400    -4042.64899667
  entropy T*S    EENTRO =        -0.58614408
  eigenvalues    EBANDS =     -1442.75514088
  atomic energy  EATOM  =      7475.22437441
  Solvation  Ediel_sol  =         0.00000000
  ---------------------------------------------------
  free energy    TOTEN  =      -169.78686975 eV

  energy without entropy =     -169.20072568  energy(sigma->0) =     -169.49379772


--------------------------------------------------------------------------------------------------------




----------------------------------------- Iteration    1(  14)  ---------------------------------------


    POTLOK:  cpu time    0.0350: real time    0.0353
    SETDIJ:  cpu time    0.0023: real time    0.0023
     EDDAV:  cpu time   35.8914: real time   35.9785
       DOS:  cpu time    0.0005: real time    0.0013
    CHARGE:  cpu time    0.6212: real time    0.6227
    MIXING:  cpu time    0.0018: real time    0.0018
    --------------------------------------------
      LOOP:  cpu time   36.5543: real time   36.6481

 eigenvalue-minimisations  : 12288
 total energy-change (2. order) : 0.1397463E-01  (-0.3040167E-01)
 number of electron     161.9999960 magnetization 
 augmentation part        7.6575102 magnetization 

 Broyden mixing:
  rms(total) = 0.13615E+00    rms(broyden)= 0.13590E+00
  rms(prec ) = 0.14887E+00
  weight for this iteration     100.00

 eigenvalues of (default mixing * dielectric matrix)
  average eigenvalue GAMMA=   0.7526
  2.2283  2.2283  0.6957  0.6957  0.4830  0.2504  0.0712  0.0636  0.0567

 Free energy of the ion-electron system (eV)
  ---------------------------------------------------
  alpha Z        PSCENC =        66.26837034
  Ewald energy   TEWEN  =     43618.70461814
  -Hartree energ DENC   =    -50167.57483227
  -exchange      EXHF   =         0.00000000
  -V(xc)+E(xc)   XCENC  =        44.29404074
  PAW double counting   =      4278.45883237    -4042.30049569
  entropy T*S    EENTRO =        -0.58661337
  eigenvalues    EBANDS =     -1442.26118978
  atomic energy  EATOM  =      7475.22437441
  Solvation  Ediel_sol  =         0.00000000
  ---------------------------------------------------
  free energy    TOTEN  =      -169.77289512 eV

  energy without entropy =     -169.18628175  energy(sigma->0) =     -169.47958843


--------------------------------------------------------------------------------------------------------




----------------------------------------- Iteration    1(  15)  ---------------------------------------


    POTLOK:  cpu time    0.0333: real time    0.0345
    SETDIJ:  cpu time    0.0024: real time    0.0024
     EDDAV:  cpu time   36.6914: real time   36.7806
       DOS:  cpu time    0.0010: real time    0.0010
    CHARGE:  cpu time    0.6232: real time    0.6248
    MIXING:  cpu time    0.0024: real time    0.0024
    --------------------------------------------
      LOOP:  cpu time   37.3559: real time   37.4518

 eigenvalue-minimisations  : 12640
 total energy-change (2. order) : 0.7851250E-02  (-0.8631927E-02)
 number of electron     161.9999962 magnetization 
 augmentation part        7.6183823 magnetization 

 Broyden mixing:
  rms(total) = 0.85387E-01    rms(broyden)= 0.85276E-01
  rms(prec ) = 0.93260E-01
  weight for this iteration     100.00

 eigenvalues of (default mixing * dielectric matrix)
  average eigenvalue GAMMA=   0.6887
  2.2325  2.2325  0.7019  0.7019  0.4817  0.2504  0.0961  0.0711  0.0629  0.0564

 Free energy of the ion-electron system (eV)
  ---------------------------------------------------
  alpha Z        PSCENC =        66.26837034
  Ewald energy   TEWEN  =     43618.70461814
  -Hartree energ DENC   =    -50170.86110601
  -exchange      EXHF   =         0.00000000
  -V(xc)+E(xc)   XCENC  =        44.33291381
  PAW double counting   =      4273.31147719    -4037.00041520
  entropy T*S    EENTRO =        -0.59355612
  eigenvalues    EBANDS =     -1439.15172043
  atomic energy  EATOM  =      7475.22437441
  Solvation  Ediel_sol  =         0.00000000
  ---------------------------------------------------
  free energy    TOTEN  =      -169.76504387 eV

  energy without entropy =     -169.17148776  energy(sigma->0) =     -169.46826581


--------------------------------------------------------------------------------------------------------




----------------------------------------- Iteration    1(  16)  ---------------------------------------


    POTLOK:  cpu time    0.0351: real time    0.0354
    SETDIJ:  cpu time    0.0023: real time    0.0023
     EDDAV:  cpu time   38.4797: real time   38.5726
       DOS:  cpu time    0.0010: real time    0.0011
    CHARGE:  cpu time    0.6221: real time    0.6246
    MIXING:  cpu time    0.0021: real time    0.0021
    --------------------------------------------
      LOOP:  cpu time   39.1445: real time   39.2440

 eigenvalue-minimisations  : 13344
 total energy-change (2. order) : 0.1335237E-02  (-0.4871810E-02)
 number of electron     161.9999962 magnetization 
 augmentation part        7.6308781 magnetization 

 Broyden mixing:
  rms(total) = 0.66922E-01    rms(broyden)= 0.66822E-01
  rms(prec ) = 0.72839E-01
  weight for this iteration     100.00

 eigenvalues of (default mixing * dielectric matrix)
  average eigenvalue GAMMA=   0.7462
  2.2503  2.2503  1.0027  1.0027  0.6975  0.5013  0.2504  0.0716  0.0642  0.0608
  0.0561

 Free energy of the ion-electron system (eV)
  ---------------------------------------------------
  alpha Z        PSCENC =        66.26837034
  Ewald energy   TEWEN  =     43618.70461814
  -Hartree energ DENC   =    -50171.27788497
  -exchange      EXHF   =         0.00000000
  -V(xc)+E(xc)   XCENC  =        44.33998626
  PAW double counting   =      4273.05195390    -4036.72518791
  entropy T*S    EENTRO =        -0.59423349
  eigenvalues    EBANDS =     -1438.75570531
  atomic energy  EATOM  =      7475.22437441
  Solvation  Ediel_sol  =         0.00000000
  ---------------------------------------------------
  free energy    TOTEN  =      -169.76370863 eV

  energy without entropy =     -169.16947514  energy(sigma->0) =     -169.46659189


--------------------------------------------------------------------------------------------------------




----------------------------------------- Iteration    1(  17)  ---------------------------------------


    POTLOK:  cpu time    0.0344: real time    0.0347
    SETDIJ:  cpu time    0.0024: real time    0.0024
     EDDAV:  cpu time   38.6075: real time   38.6999
       DOS:  cpu time    0.0002: real time    0.0011
    CHARGE:  cpu time    0.6265: real time    0.6280
    MIXING:  cpu time    0.0020: real time    0.0020
    --------------------------------------------
      LOOP:  cpu time   39.2752: real time   39.3745

 eigenvalue-minimisations  : 13408
 total energy-change (2. order) : 0.2724936E-02  (-0.2734779E-02)
 number of electron     161.9999963 magnetization 
 augmentation part        7.8195276 magnetization 

 Broyden mixing:
  rms(total) = 0.35337E-01    rms(broyden)= 0.35276E-01
  rms(prec ) = 0.38551E-01
  weight for this iteration     100.00

 eigenvalues of (default mixing * dielectric matrix)
  average eigenvalue GAMMA=   0.7564
  2.2092  2.2092  1.1100  1.1100  0.7235  0.7235  0.4889  0.2504  0.0715  0.0642
  0.0607  0.0561

 Free energy of the ion-electron system (eV)
  ---------------------------------------------------
  alpha Z        PSCENC =        66.26837034
  Ewald energy   TEWEN  =     43618.70461814
  -Hartree energ DENC   =    -50175.43107082
  -exchange      EXHF   =         0.00000000
  -V(xc)+E(xc)   XCENC  =        44.41683488
  PAW double counting   =      4271.99053845    -4035.50909161
  entropy T*S    EENTRO =        -0.60344924
  eigenvalues    EBANDS =     -1434.82210823
  atomic energy  EATOM  =      7475.22437441
  Solvation  Ediel_sol  =         0.00000000
  ---------------------------------------------------
  free energy    TOTEN  =      -169.76098370 eV

  energy without entropy =     -169.15753445  energy(sigma->0) =     -169.45925908


--------------------------------------------------------------------------------------------------------




----------------------------------------- Iteration    1(  18)  ---------------------------------------


    POTLOK:  cpu time    0.0350: real time    0.0352
    SETDIJ:  cpu time    0.0023: real time    0.0023
     EDDAV:  cpu time   39.1196: real time   39.2140
       DOS:  cpu time    0.0010: real time    0.0010
    CHARGE:  cpu time    0.6270: real time    0.6285
    MIXING:  cpu time    0.0023: real time    0.0023
    --------------------------------------------
      LOOP:  cpu time   39.7885: real time   39.8899

 eigenvalue-minimisations  : 13600
 total energy-change (2. order) :-0.1775692E-02  (-0.1965494E-02)
 number of electron     161.9999963 magnetization 
 augmentation part        7.8195751 magnetization 

 Broyden mixing:
  rms(total) = 0.79338E-01    rms(broyden)= 0.79299E-01
  rms(prec ) = 0.86972E-01
  weight for this iteration     100.00

 eigenvalues of (default mixing * dielectric matrix)
  average eigenvalue GAMMA=   0.7733
  2.6673  1.8665  1.8665  0.9322  0.9322  0.7272  0.4936  0.2504  0.0716  0.0560
  0.0606  0.0637  0.0648

 Free energy of the ion-electron system (eV)
  ---------------------------------------------------
  alpha Z        PSCENC =        66.26837034
  Ewald energy   TEWEN  =     43618.70461814
  -Hartree energ DENC   =    -50177.97209557
  -exchange      EXHF   =         0.00000000
  -V(xc)+E(xc)   XCENC  =        44.43519980
  PAW double counting   =      4271.57076719    -4035.07318734
  entropy T*S    EENTRO =        -0.60338333
  eigenvalues    EBANDS =     -1432.31742303
  atomic energy  EATOM  =      7475.22437441
  Solvation  Ediel_sol  =         0.00000000
  ---------------------------------------------------
  free energy    TOTEN  =      -169.76275939 eV

  energy without entropy =     -169.15937606  energy(sigma->0) =     -169.46106773


--------------------------------------------------------------------------------------------------------




----------------------------------------- Iteration    1(  19)  ---------------------------------------


    POTLOK:  cpu time    0.0351: real time    0.0352
    SETDIJ:  cpu time    0.0023: real time    0.0023
     EDDAV:  cpu time   34.4897: real time   34.5723
       DOS:  cpu time    0.0010: real time    0.0010
    CHARGE:  cpu time    0.6267: real time    0.6282
    MIXING:  cpu time    0.0021: real time    0.0021
    --------------------------------------------
      LOOP:  cpu time   35.1582: real time   35.2477

 eigenvalue-minimisations  : 11712
 total energy-change (2. order) : 0.2622350E-02  (-0.2008878E-02)
 number of electron     161.9999963 magnetization 
 augmentation part        7.8131174 magnetization 

 Broyden mixing:
  rms(total) = 0.31605E-01    rms(broyden)= 0.31526E-01
  rms(prec ) = 0.34275E-01
  weight for this iteration     100.00

 eigenvalues of (default mixing * dielectric matrix)
  average eigenvalue GAMMA=   0.8268
  2.7121  2.1758  2.1758  0.9944  0.9944  0.7313  0.7313  0.4964  0.2504  0.0715
  0.0560  0.0642  0.0603  0.0613

 Free energy of the ion-electron system (eV)
  ---------------------------------------------------
  alpha Z        PSCENC =        66.26837034
  Ewald energy   TEWEN  =     43618.70461814
  -Hartree energ DENC   =    -50180.09265881
  -exchange      EXHF   =         0.00000000
  -V(xc)+E(xc)   XCENC  =        44.44924373
  PAW double counting   =      4271.13500799    -4034.62611358
  entropy T*S    EENTRO =        -0.60339063
  eigenvalues    EBANDS =     -1430.21958863
  atomic energy  EATOM  =      7475.22437441
  Solvation  Ediel_sol  =         0.00000000
  ---------------------------------------------------
  free energy    TOTEN  =      -169.76013704 eV

  energy without entropy =     -169.15674641  energy(sigma->0) =     -169.45844173


--------------------------------------------------------------------------------------------------------




----------------------------------------- Iteration    1(  20)  ---------------------------------------


    POTLOK:  cpu time    0.0349: real time    0.0353
    SETDIJ:  cpu time    0.0023: real time    0.0023
     EDDAV:  cpu time   37.6066: real time   37.6973
       DOS:  cpu time    0.0010: real time    0.0010
    CHARGE:  cpu time    0.6256: real time    0.6272
    MIXING:  cpu time    0.0029: real time    0.0029
    --------------------------------------------
      LOOP:  cpu time   38.2746: real time   38.3725

 eigenvalue-minimisations  : 12992
 total energy-change (2. order) :-0.1411291E-03  (-0.4460428E-03)
 number of electron     161.9999963 magnetization 
 augmentation part        7.7407313 magnetization 

 Broyden mixing:
  rms(total) = 0.19626E-01    rms(broyden)= 0.19612E-01
  rms(prec ) = 0.21834E-01
  weight for this iteration     100.00

 eigenvalues of (default mixing * dielectric matrix)
  average eigenvalue GAMMA=   0.7861
  2.7129  2.2149  2.2149  1.0067  1.0067  0.7377  0.7377  0.4964  0.2504  0.0998
  0.0715  0.0560  0.0642  0.0612  0.0602

 Free energy of the ion-electron system (eV)
  ---------------------------------------------------
  alpha Z        PSCENC =        66.26837034
  Ewald energy   TEWEN  =     43618.70461814
  -Hartree energ DENC   =    -50184.37977932
  -exchange      EXHF   =         0.00000000
  -V(xc)+E(xc)   XCENC  =        44.45901227
  PAW double counting   =      4268.54279302    -4032.06486504
  entropy T*S    EENTRO =        -0.60259202
  eigenvalues    EBANDS =     -1425.91220996
  atomic energy  EATOM  =      7475.22437441
  Solvation  Ediel_sol  =         0.00000000
  ---------------------------------------------------
  free energy    TOTEN  =      -169.76027817 eV

  energy without entropy =     -169.15768615  energy(sigma->0) =     -169.45898216


--------------------------------------------------------------------------------------------------------




----------------------------------------- Iteration    1(  21)  ---------------------------------------


    POTLOK:  cpu time    0.0349: real time    0.0350
    SETDIJ:  cpu time    0.0023: real time    0.0023
     EDDAV:  cpu time   28.6840: real time   28.7528
       DOS:  cpu time    0.0010: real time    0.0010
    CHARGE:  cpu time    0.6259: real time    0.6274
    MIXING:  cpu time    0.0023: real time    0.0023
    --------------------------------------------
      LOOP:  cpu time   29.3514: real time   29.4270

 eigenvalue-minimisations  :  9248
 total energy-change (2. order) :-0.8999516E-04  (-0.3024964E-03)
 number of electron     161.9999963 magnetization 
 augmentation part        7.7338535 magnetization 

 Broyden mixing:
  rms(total) = 0.16912E-01    rms(broyden)= 0.16886E-01
  rms(prec ) = 0.18855E-01
  weight for this iteration     100.00

 eigenvalues of (default mixing * dielectric matrix)
  average eigenvalue GAMMA=   0.8624
  2.8576  2.8576  2.1642  1.1766  1.1766  0.8673  0.8673  0.7107  0.4955  0.2504
  0.0715  0.0560  0.0642  0.0620  0.0607  0.0596

 Free energy of the ion-electron system (eV)
  ---------------------------------------------------
  alpha Z        PSCENC =        66.26837034
  Ewald energy   TEWEN  =     43618.70461814
  -Hartree energ DENC   =    -50184.88047372
  -exchange      EXHF   =         0.00000000
  -V(xc)+E(xc)   XCENC  =        44.46049641
  PAW double counting   =      4268.29647751    -4031.82216094
  entropy T*S    EENTRO =        -0.60249877
  eigenvalues    EBANDS =     -1425.40957153
  atomic energy  EATOM  =      7475.22437441
  Solvation  Ediel_sol  =         0.00000000
  ---------------------------------------------------
  free energy    TOTEN  =      -169.76036816 eV

  energy without entropy =     -169.15786939  energy(sigma->0) =     -169.45911878


--------------------------------------------------------------------------------------------------------




----------------------------------------- Iteration    1(  22)  ---------------------------------------


    POTLOK:  cpu time    0.0347: real time    0.0350
    SETDIJ:  cpu time    0.0023: real time    0.0023
     EDDAV:  cpu time   30.1026: real time   30.1760
       DOS:  cpu time    0.0002: real time    0.0010
    CHARGE:  cpu time    0.6214: real time    0.6229
    MIXING:  cpu time    0.0025: real time    0.0025
    --------------------------------------------
      LOOP:  cpu time   30.7666: real time   30.8462

 eigenvalue-minimisations  :  9888
 total energy-change (2. order) :-0.1295744E-02  (-0.1554001E-03)
 number of electron     161.9999963 magnetization 
 augmentation part        7.7022150 magnetization 

 Broyden mixing:
  rms(total) = 0.75350E-02    rms(broyden)= 0.75181E-02
  rms(prec ) = 0.82798E-02
  weight for this iteration     100.00

 eigenvalues of (default mixing * dielectric matrix)
  average eigenvalue GAMMA=   0.9435
  3.5808  2.8276  2.0002  2.0002  1.0417  1.0417  0.8566  0.8566  0.7142  0.4956
  0.2504  0.0715  0.0560  0.0642  0.0619  0.0607  0.0597

 Free energy of the ion-electron system (eV)
  ---------------------------------------------------
  alpha Z        PSCENC =        66.26837034
  Ewald energy   TEWEN  =     43618.70461814
  -Hartree energ DENC   =    -50188.38519971
  -exchange      EXHF   =         0.00000000
  -V(xc)+E(xc)   XCENC  =        44.47290488
  PAW double counting   =      4267.04228276    -4030.59218059
  entropy T*S    EENTRO =        -0.60164241
  eigenvalues    EBANDS =     -1421.89519172
  atomic energy  EATOM  =      7475.22437441
  Solvation  Ediel_sol  =         0.00000000
  ---------------------------------------------------
  free energy    TOTEN  =      -169.76166391 eV

  energy without entropy =     -169.16002150  energy(sigma->0) =     -169.46084270


--------------------------------------------------------------------------------------------------------




----------------------------------------- Iteration    1(  23)  ---------------------------------------


    POTLOK:  cpu time    0.0355: real time    0.0356
    SETDIJ:  cpu time    0.0023: real time    0.0023
     EDDAV:  cpu time   26.6621: real time   26.7259
       DOS:  cpu time    0.0012: real time    0.0012
    CHARGE:  cpu time    0.6269: real time    0.6284
    MIXING:  cpu time    0.0026: real time    0.0026
    --------------------------------------------
      LOOP:  cpu time   27.3317: real time   27.4024

 eigenvalue-minimisations  :  8480
 total energy-change (2. order) :-0.1161857E-02  (-0.4006920E-04)
 number of electron     161.9999963 magnetization 
 augmentation part        7.7054077 magnetization 

 Broyden mixing:
  rms(total) = 0.10150E-01    rms(broyden)= 0.10146E-01
  rms(prec ) = 0.11101E-01
  weight for this iteration     100.00

 eigenvalues of (default mixing * dielectric matrix)
  average eigenvalue GAMMA=   0.9064
  3.6952  2.8076  2.0471  2.0471  1.0479  1.0479  0.8556  0.8556  0.7136  0.4956
  0.2504  0.0715  0.0560  0.0642  0.0619  0.0607  0.0597  0.0771

 Free energy of the ion-electron system (eV)
  ---------------------------------------------------
  alpha Z        PSCENC =        66.26837034
  Ewald energy   TEWEN  =     43618.70461814
  -Hartree energ DENC   =    -50190.77131457
  -exchange      EXHF   =         0.00000000
  -V(xc)+E(xc)   XCENC  =        44.48626699
  PAW double counting   =      4267.49076151    -4031.04175319
  entropy T*S    EENTRO =        -0.60140540
  eigenvalues    EBANDS =     -1419.52274398
  atomic energy  EATOM  =      7475.22437441
  Solvation  Ediel_sol  =         0.00000000
  ---------------------------------------------------
  free energy    TOTEN  =      -169.76282577 eV

  energy without entropy =     -169.16142036  energy(sigma->0) =     -169.46212306


--------------------------------------------------------------------------------------------------------




----------------------------------------- Iteration    1(  24)  ---------------------------------------


    POTLOK:  cpu time    0.0375: real time    0.0378
    SETDIJ:  cpu time    0.0023: real time    0.0023
     EDDAV:  cpu time   24.1118: real time   24.1700
       DOS:  cpu time    0.0010: real time    0.0010
    --------------------------------------------
      LOOP:  cpu time   24.1538: real time   24.2132

 eigenvalue-minimisations  :  7328
 total energy-change (2. order) :-0.9258663E-04  (-0.4094476E-04)
 number of electron     161.9999963 magnetization 
 augmentation part        7.7054077 magnetization 

 Free energy of the ion-electron system (eV)
  ---------------------------------------------------
  alpha Z        PSCENC =        66.26837034
  Ewald energy   TEWEN  =     43618.70461814
  -Hartree energ DENC   =    -50190.99538572
  -exchange      EXHF   =         0.00000000
  -V(xc)+E(xc)   XCENC  =        44.48746081
  PAW double counting   =      4267.54039946    -4031.09175239
  entropy T*S    EENTRO =        -0.60139406
  eigenvalues    EBANDS =     -1419.29960933
  atomic energy  EATOM  =      7475.22437441
  Solvation  Ediel_sol  =         0.00000000
  ---------------------------------------------------
  free energy    TOTEN  =      -169.76291835 eV

  energy without entropy =     -169.16152429  energy(sigma->0) =     -169.46222132


--------------------------------------------------------------------------------------------------------




 average (electrostatic) potential at core
  the test charge radii are     1.1394  0.9698
  (the norm of the test charge is              1.0000)
       1 -53.2438       2 -53.2428       3 -53.2423       4 -53.2428       5 -53.2423
       6 -53.2415       7 -53.2434       8 -53.2427       9 -53.2434      10 -95.3991
      11 -95.3992      12 -95.3992      13 -95.3990      14 -95.3994      15 -95.3992
      16 -95.3994      17 -95.3994      18 -95.3989      19 -95.3991      20 -95.3992
      21 -95.3991      22 -95.3993      23 -95.3992      24 -95.3993      25 -95.3995
      26 -95.3992      27 -95.3992
 
 
 
 E-fermi :  -3.8228     XC(G=0):  -2.4099     alpha+bet : -2.0556


 k-point     1 :       0.0000    0.0000    0.0000
  band No.  band energies     occupation 
      1     -17.9102      2.00000
      2     -16.7724      2.00000
      3     -16.7724      2.00000
      4     -16.7724      2.00000
      5     -16.7724      2.00000
      6     -16.7543      2.00000
      7     -16.7543      2.00000
      8     -16.4122      2.00000
      9     -16.0334      2.00000
     10     -16.0334      2.00000
     11     -16.0333      2.00000
     12     -16.0333      2.00000
     13     -16.0247      2.00000
     14     -16.0247      2.00000
     15     -15.9106      2.00000
     16     -15.9106      2.00000
     17     -15.9025      2.00000
     18     -15.9025      2.00000
     19      -8.7058      2.00000
     20      -8.6729      2.00000
     21      -8.6729      2.00000
     22      -8.6727      2.00000
     23      -8.6727      2.00000
     24      -8.6541      2.00000
     25      -8.6540      2.00000
     26      -8.4034      2.00000
     27      -8.4033      2.00000
     28      -8.3919      2.00000
     29      -8.3919      2.00000
     30      -8.3575      2.00000
     31      -8.3575      2.00000
     32      -8.0188      2.00000
     33      -8.0188      2.00000
     34      -8.0188      2.00000
     35      -8.0187      2.00000
     36      -8.0147      2.00000
     37      -8.0146      2.00000
     38      -7.3025      2.00000
     39      -7.3024      2.00000
     40      -7.3024      2.00000
     41      -7.3023      2.00000
     42      -7.2983      2.00000
     43      -7.2983      2.00000
     44      -7.1463      2.00000
     45      -7.1327      2.00000
     46      -6.9025      2.00000
     47      -6.9024      2.00000
     48      -6.9000      2.00000
     49      -6.8999      2.00000
     50      -6.8997      2.00000
     51      -6.8997      2.00000
     52      -6.7434      2.00000
     53      -6.7433      2.00000
     54      -6.4601      2.00000
     55      -6.4601      2.00000
     56      -6.4285      2.00000
     57      -6.4284      2.00000
     58      -5.6128      2.00000
     59      -5.6127      2.00000
     60      -5.5446      2.00000
     61      -5.5445      2.00000
     62      -5.5445      2.00000
     63      -5.5445      2.00000
     64      -5.3407      2.00000
     65      -5.3407      2.00000
     66      -5.3367      2.00000
     67      -5.3367      2.00000
     68      -5.3367      2.00000
     69      -5.3367      2.00000
     70      -5.1612      2.00000
     71      -4.4772      2.00000
     72      -4.4601      1.99999
     73      -4.3674      1.99988
     74      -4.3673      1.99988
     75      -4.3669      1.99988
     76      -4.3669      1.99988
     77      -4.3615      1.99986
     78      -4.3612      1.99986
     79      -3.9058      1.44276
     80      -3.9056      1.44215
     81      -3.8062      0.90685
     82      -3.7802      0.76345
[...]
    120       2.4482      0.00000
    121       2.6152      0.00000
    122       2.7050      0.00000
    123       2.9898      0.00000
    124       3.0006      0.00000
    125       3.0046      0.00000
    126       3.0539      0.00000
    127       3.1499      0.00000
    128       3.2047      0.00000

 k-point    34 :       0.5000    0.5000    0.0000
  band No.  band energies     occupation 
      1     -17.6736      2.00000
      2     -17.6730      2.00000
      3     -16.8639      2.00000
      4     -16.8638      2.00000
      5     -16.6404      2.00000
      6     -16.6398      2.00000
      7     -16.1474      2.00000
      8     -16.1474      2.00000
      9     -15.7591      2.00000
     10     -15.7590      2.00000
     11     -15.7589      2.00000
     12     -15.7588      2.00000
     13     -15.7273      2.00000
     14     -15.5370      2.00000
     15     -15.5368      2.00000
     16     -15.5366      2.00000
     17     -15.5365      2.00000
     18     -15.4972      2.00000
     19      -9.7828      2.00000
     20      -9.0622      2.00000
     21      -9.0620      2.00000
     22      -9.0615      2.00000
     23      -9.0613      2.00000
     24      -8.6227      2.00000
     25      -8.5584      2.00000
     26      -8.5577      2.00000
     27      -8.4025      2.00000
     28      -8.4025      2.00000
     29      -8.4022      2.00000
     30      -8.4021      2.00000
     31      -7.8942      2.00000
     32      -7.8942      2.00000
     33      -7.7160      2.00000
     34      -7.7159      2.00000
     35      -7.1090      2.00000
     36      -7.1086      2.00000
     37      -7.0954      2.00000
     38      -7.0953      2.00000
     39      -6.9576      2.00000
     40      -6.8960      2.00000
     41      -6.8958      2.00000
     42      -6.8957      2.00000
     43      -6.8955      2.00000
     44      -6.6432      2.00000
     45      -6.6429      2.00000
     46      -6.6427      2.00000
     47      -6.6424      2.00000
     48      -6.2386      2.00000
     49      -6.1654      2.00000
     50      -6.1653      2.00000
     51      -6.1652      2.00000
     52      -6.1650      2.00000
     53      -5.8829      2.00000
     54      -5.8822      2.00000
     55      -5.8592      2.00000
     56      -5.8591      2.00000
     57      -5.8301      2.00000
     58      -5.8300      2.00000
     59      -5.7254      2.00000
     60      -5.7252      2.00000
     61      -5.7251      2.00000
     62      -5.7249      2.00000
     63      -5.7220      2.00000
     64      -5.3151      2.00000
     65      -5.3148      2.00000
     66      -4.8240      2.00000
     67      -4.8236      2.00000
     68      -4.8037      2.00000
     69      -4.8037      2.00000
     70      -4.4222      2.00000
     71      -4.2570      2.00000
     72      -4.2567      2.00000
     73      -4.2369      2.00000
     74      -3.7486      2.00000
     75      -3.7482      2.00000
     76      -3.5298      2.00000
     77      -3.5295      2.00000
     78      -3.2872      1.99656
     79      -3.2870      1.99654
     80      -3.2861      1.99647
     81      -3.2858      1.99645
     82      -2.6938      0.20392
     83      -2.6724      0.15493
     84      -2.6722      0.15457
     85      -2.6533      0.11949
     86      -2.6531      0.11916
     87      -2.6527      0.11851
     88      -2.6522      0.11766
     89      -2.4824      0.00568
     90      -2.4813      0.00555
     91      -2.2518      0.00001
     92      -2.2514      0.00001
     93      -2.2511      0.00001
     94      -2.2508      0.00001
     95      -2.2383      0.00001
     96      -2.2380      0.00001
     97      -2.1285      0.00000
     98      -2.1065      0.00000
     99      -2.1058      0.00000
    100      -1.2234      0.00000
    101      -1.2233      0.00000
    102      -1.2230      0.00000
    103      -1.2228      0.00000
    104      -1.2061      0.00000
    105      -1.2060      0.00000
    106      -0.9843      0.00000
    107      -0.9835      0.00000
    108      -0.4561      0.00000
    109      -0.4560      0.00000
    110      -0.2314      0.00000
    111      -0.1759      0.00000
    112      -0.1756      0.00000
    113      -0.0802      0.00000
    114      -0.0801      0.00000
    115      -0.0798      0.00000
    116      -0.0797      0.00000
    117       0.0368      0.00000
    118       2.2769      0.00000
    119       2.2769      0.00000
    120       2.4388      0.00000
    121       2.4389      0.00000
    122       2.8158      0.00000
    123       2.8159      0.00000
    124       2.9610      0.00000
    125       3.0804      0.00000
    126       3.1629      0.00000
    127       3.1630      0.00000
    128       3.3517      0.00000


--------------------------------------------------------------------------------------------------------


 soft charge-density along one line, spin component           1
         0         1         2         3         4         5         6         7         8         9
 total charge-density along one line
 
 pseudopotential strength for first ion, spin component:           1
 -8.722  -0.021  -0.000  -0.000  -0.000   0.671   0.005   0.000
 -0.021  -8.661  -0.000   0.000   0.000   0.005   0.654   0.000
 -0.000  -0.000  -8.626   0.000  -0.000   0.000   0.000   0.646
 -0.000   0.000   0.000  -8.661   0.021   0.000  -0.000  -0.000
 -0.000   0.000  -0.000   0.021  -8.722   0.000  -0.000   0.000
  0.671   0.005   0.000   0.000   0.000   0.366  -0.001  -0.000
  0.005   0.654   0.000  -0.000  -0.000  -0.001   0.371  -0.000
  0.000   0.000   0.646  -0.000   0.000  -0.000  -0.000   0.373
  0.000  -0.000  -0.000   0.654  -0.005  -0.000   0.000   0.000
  0.000  -0.000   0.000  -0.005   0.671  -0.000   0.000  -0.000
 -0.000   0.000  -0.014  -0.000  -0.000   0.000  -0.000   0.003
  0.000  -0.000   0.002   0.000   0.000  -0.000   0.000  -0.001
  0.000  -0.000  -0.000   0.000  -0.000   0.000   0.000   0.000
  0.000   0.000  -0.000   0.000  -0.000  -0.000  -0.000  -0.000
  0.000   0.000  -0.000  -0.000   0.000  -0.000  -0.000   0.000
  0.000   0.000   0.000  -0.000   0.000  -0.000   0.000  -0.000
 -0.000  -0.000  -0.000  -0.000   0.000   0.000   0.000   0.000
 -0.000  -0.000   0.000   0.000  -0.000   0.000   0.000  -0.000
 total augmentation occupancy for first ion, spin component:           1
  1.006  -0.008  -0.000  -0.000  -0.000   0.323   0.229   0.000  -0.000  -0.000   0.000  -0.000  -0.000   0.000   0.000  -0.000
 -0.008   1.181   0.000   0.000   0.000   0.232   0.552  -0.000   0.000   0.000   0.000   0.000  -0.000   0.000   0.000   0.000
 -0.000   0.000   1.027   0.000   0.000   0.000  -0.000   0.219  -0.000   0.000   0.185  -0.027   0.000   0.000   0.000   0.000
 -0.000   0.000   0.000   1.181   0.008  -0.000   0.000  -0.000   0.552  -0.232  -0.000   0.000   0.000   0.000  -0.000  -0.000
 -0.000   0.000   0.000   0.008   1.006  -0.000   0.000   0.000  -0.229   0.323   0.000   0.000  -0.000  -0.000   0.000  -0.000
  0.323   0.232   0.000  -0.000  -0.000   0.314   0.176  -0.000   0.000   0.000  -0.000  -0.000  -0.000   0.000   0.000   0.000
  0.229   0.552  -0.000   0.000   0.000   0.176   0.481  -0.000   0.000   0.000  -0.000   0.000  -0.000   0.000   0.000   0.000
  0.000  -0.000   0.219  -0.000   0.000  -0.000  -0.000   0.235  -0.000   0.000   0.044  -0.024   0.000   0.000  -0.000  -0.000
 -0.000   0.000  -0.000   0.552  -0.229   0.000   0.000  -0.000   0.481  -0.176  -0.000   0.000   0.000   0.000  -0.000  -0.000
 -0.000   0.000   0.000  -0.232   0.323   0.000   0.000   0.000  -0.176   0.314  -0.000   0.000  -0.000  -0.000   0.000   0.000
  0.000   0.000   0.185  -0.000   0.000  -0.000  -0.000   0.044  -0.000  -0.000   1.277  -0.344   0.000  -0.000   0.000  -0.000
 -0.000   0.000  -0.027   0.000   0.000  -0.000   0.000  -0.024   0.000   0.000  -0.344   0.152  -0.000   0.000  -0.000   0.000
 -0.000  -0.000   0.000   0.000  -0.000  -0.000  -0.000   0.000   0.000  -0.000   0.000  -0.000   0.326  -0.000   0.000  -0.011
  0.000   0.000   0.000   0.000  -0.000   0.000   0.000   0.000   0.000  -0.000  -0.000   0.000  -0.000   0.392  -0.000   0.000
  0.000   0.000   0.000  -0.000   0.000   0.000   0.000  -0.000  -0.000   0.000   0.000  -0.000   0.000  -0.000   0.326  -0.000
 -0.000   0.000   0.000  -0.000  -0.000   0.000   0.000  -0.000  -0.000   0.000  -0.000   0.000  -0.011   0.000  -0.000   0.001
 -0.000   0.000   0.000   0.000   0.000  -0.000  -0.000  -0.000  -0.000   0.000   0.000  -0.000   0.000  -0.012   0.000  -0.000
  0.000   0.000   0.000   0.000   0.000  -0.000  -0.000  -0.000   0.000  -0.000  -0.000   0.000  -0.000   0.000  -0.011   0.000


------------------------ aborting loop because EDIFF is reached ----------------------------------------


    CHARGE:  cpu time    0.6146: real time    0.6161
    FORLOC:  cpu time    0.0067: real time    0.0067
    FORNL :  cpu time    6.9579: real time    6.9745
    STRESS:  cpu time   33.5930: real time   33.6734
    FORCOR:  cpu time    0.0363: real time    0.0364
    FORHAR:  cpu time    0.0134: real time    0.0135
    MIXING:  cpu time    0.0017: real time    0.0017
    OFIELD:  cpu time    0.0000: real time    0.0000

  FORCE on cell =-STRESS in cart. coord.  units (eV):
  Direction    XX          YY          ZZ          XY          YZ          ZX
  --------------------------------------------------------------------------------------
  Alpha Z    79.50379    79.50379    79.50379
  Ewald   57163.69961 57163.70778-62555.23229    -0.00235    -0.00240    -0.04244
  Hartree 58016.69839 58016.69412-57620.58027    -0.00076    -0.00055    -0.01196
  E(xc)    -614.65452  -614.65421  -622.57197     0.00001     0.00003    -0.00002
  Local  ************************117569.66922     0.00288     0.00302     0.05247
  n-local  1212.90987  1212.89802  1272.22586    -0.00025    -0.00047    -0.00071
  augment   -63.69881   -63.69720   -67.40168     0.00002     0.00007     0.00065
  Kinetic  1898.63171  1898.63118  1943.20271     0.00020    -0.00014     0.00944
  Fock        0.00000     0.00000     0.00000     0.00000     0.00000     0.00000
  -------------------------------------------------------------------------------------
  Total       0.04024     0.04752    -1.18463    -0.00027    -0.00043     0.00743
  in kB       0.02950     0.03484    -0.86851    -0.00019    -0.00031     0.00544
  external pressure =       -0.27 kB  Pullay stress =        0.00 kB


 VOLUME and BASIS-vectors are now :
 -----------------------------------------------------------------------------
  energy-cutoff  :      280.00
  volume of cell :     2185.34
      direct lattice vectors                 reciprocal lattice vectors
     7.942416244  4.585805759  0.000000000     0.062953122  0.109032116  0.000000000
    -7.942414222  4.585802690  0.000000000    -0.062953164  0.109032143  0.000000000
     0.000000000  0.000000000 30.000000000     0.000000000  0.000000000  0.033333333

  length of vectors
     9.171237117  9.171233831 30.000000000     0.125901143  0.125901188  0.033333333


 FORCES acting on ions
    electron-ion (+dipol)            ewald-force                    non-local-force                 convergence-correction
 -----------------------------------------------------------------------------------------------
   0.304E-01 0.116E-01 0.259E-01   -.139E-01 -.310E-01 -.266E-01   0.473E-03 0.121E-03 0.418E-03   -.163E-01 0.185E-01 0.137E-03
   -.323E-04 -.728E-01 -.871E-02   -.350E-02 0.468E-01 0.896E-02   -.731E-04 -.177E-02 -.355E-03   0.339E-02 0.262E-01 0.572E-04
   -.947E-01 -.374E-01 -.110E-01   0.542E-01 0.345E-01 0.111E-01   -.150E-02 -.937E-03 -.306E-03   0.407E-01 0.351E-02 0.316E-04
   -.510E-01 0.141E+00 0.595E-02   0.536E-01 -.103E+00 -.586E-02   -.122E-02 0.216E-02 0.717E-03   -.161E-02 -.396E-01 -.188E-03
   0.152E+00 0.455E-01 -.677E-02   -.978E-01 -.133E-01 0.699E-02   0.256E-02 -.318E-03 0.308E-04   -.543E-01 -.320E-01 -.154E-03
   0.511E-01 0.884E-01 -.189E-01   -.347E-01 -.331E-01 0.192E-01   0.664E-03 0.556E-03 -.274E-03   -.170E-01 -.547E-01 -.845E-04
   -.592E-01 -.133E-02 0.155E-01   0.460E-01 -.279E-01 -.159E-01   -.113E-02 0.190E-03 0.189E-03   0.136E-01 0.285E-01 0.149E-03
   -.750E-01 -.907E-01 -.111E-01   0.419E-01 0.548E-01 0.115E-01   -.704E-03 -.208E-02 -.262E-03   0.334E-01 0.361E-01 0.970E-05
   0.441E-01 -.461E-01 0.741E-02   -.429E-01 0.334E-01 -.790E-02   0.111E-02 -.682E-03 -.354E-03   -.186E-02 0.135E-01 0.173E-03
   0.969E-01 0.839E-02 0.649E+03   -.423E-01 0.235E-02 -.653E+03   0.240E-03 0.371E-03 0.431E+01   -.544E-01 -.116E-01 0.348E-01
   0.443E-01 0.803E-01 -.649E+03   -.183E-01 -.532E-01 0.653E+03   0.149E-02 -.241E-03 -.431E+01   -.270E-01 -.277E-01 0.696E-02
   -.282E-01 0.114E-01 0.649E+03   0.632E-02 0.175E-01 -.653E+03   -.139E-02 0.422E-03 0.431E+01   0.217E-01 -.282E-01 0.550E-01
   0.103E+00 0.370E-01 -.649E+03   -.540E-01 0.586E-03 0.653E+03   0.135E-02 -.147E-03 -.431E+01   -.503E-01 -.369E-01 -.398E-01
   -.328E-01 0.428E-01 0.649E+03   0.351E-01 -.237E-01 -.653E+03   0.396E-03 0.183E-02 0.431E+01   -.263E-02 -.210E-01 0.771E-02
   -.350E-01 0.629E-01 -.649E+03   0.187E-01 -.265E-01 0.653E+03   -.131E-02 0.217E-02 -.431E+01   0.176E-01 -.390E-01 -.148E-01
   0.296E-02 0.244E-01 0.649E+03   0.555E-02 -.120E-01 -.653E+03   0.672E-03 0.730E-03 0.431E+01   -.913E-02 -.135E-01 -.341E-01
   -.550E-01 0.224E-01 -.649E+03   0.474E-01 -.240E-01 0.653E+03   0.188E-03 0.776E-04 -.431E+01   0.865E-02 0.137E-02 0.350E-01
   0.954E-01 0.206E-01 0.649E+03   -.554E-01 0.183E-02 -.653E+03   0.795E-03 0.453E-03 0.431E+01   -.414E-01 -.224E-01 -.938E-02
   0.432E-01 -.339E-01 -.649E+03   -.348E-01 0.342E-01 0.653E+03   0.125E-02 0.600E-03 -.431E+01   -.931E-02 -.160E-03 0.354E-01
   -.235E-01 0.840E-01 0.649E+03   0.183E-01 -.457E-01 -.653E+03   -.218E-02 0.167E-02 0.431E+01   0.687E-02 -.395E-01 -.133E-01
   0.305E-01 0.269E-01 -.649E+03   -.173E-01 -.181E-02 0.653E+03   0.469E-03 0.226E-02 -.431E+01   -.138E-01 -.265E-01 0.167E-01
   -.679E-01 -.105E+00 0.649E+03   0.308E-01 0.364E-01 -.653E+03   -.181E-02 -.278E-03 0.431E+01   0.387E-01 0.677E-01 0.785E-02
   -.702E-02 -.708E-01 -.649E+03   0.960E-02 0.733E-02 0.653E+03   0.981E-03 -.731E-03 -.431E+01   -.291E-02 0.634E-01 -.268E-01
   -.480E-01 -.751E-01 0.649E+03   0.190E-01 0.428E-01 -.653E+03   -.861E-04 -.990E-03 0.431E+01   0.288E-01 0.345E-01 -.154E-01
   -.944E-01 -.927E-01 -.649E+03   0.354E-01 0.569E-01 0.653E+03   -.688E-03 -.698E-03 -.431E+01   0.594E-01 0.376E-01 -.298E-01
   -.611E-02 -.345E-01 0.649E+03   -.435E-02 0.534E-03 -.653E+03   -.959E-03 0.398E-03 0.431E+01   0.109E-01 0.339E-01 -.148E-01
   -.147E-01 -.531E-01 -.649E+03   -.232E-02 0.249E-01 0.653E+03   -.245E-03 0.930E-03 -.431E+01   0.181E-01 0.278E-01 -.129E-02
 -----------------------------------------------------------------------------------------------
   0.840E-03 -.552E-02 -.170E-03   -.444E-13 0.118E-13 -.682E-12   -.648E-03 0.607E-02 -.689E-05   -.108E-03 -.174E-04 0.163E-03
 
 
 POSITION                                       TOTAL-FORCE (eV/Angst)
 -----------------------------------------------------------------------------------
      0.00005     -0.00043     -0.00008         0.000613     -0.000800     -0.000166
      5.29495      6.11359      0.00001        -0.000213     -0.001620     -0.000046
     -5.29514      3.05653      0.00003        -0.001327     -0.000277     -0.000195
      2.64723      1.52838      0.00000        -0.000300      0.001072      0.000622
      0.00039      3.05654      0.00003         0.002071     -0.000194      0.000102
     -2.64746      4.58531      0.00005         0.000042      0.001112     -0.000069
      5.29474      3.05682     -0.00005        -0.000755     -0.000613     -0.000020
      2.64743      4.58500      0.00004        -0.000425     -0.001873      0.000114
      0.00020      6.11380     -0.00002         0.000479      0.000067     -0.000667
     -0.88237      1.52808     28.52325         0.000515     -0.000514     -0.000384
      0.88244      1.52806      1.47680         0.000519     -0.000787      0.000562
     -3.52991      3.05655     28.52325        -0.001640      0.001154      0.001271
     -1.76485      3.05659      1.47657        -0.000025      0.000480      0.000922
     -6.17738      4.58522     28.52324         0.000029     -0.000093      0.001064
     -4.41259      4.58528      1.47668         0.000012     -0.000436     -0.001646
      1.76500      3.05667     28.52329         0.000050     -0.000348     -0.003017
      3.52985      3.05661      1.47674         0.001225     -0.000137      0.000614
     -0.88232      4.58514     28.52349        -0.000597      0.000455     -0.000805
      0.88248      4.58513      1.47656         0.000340      0.000676      0.002017
     -3.52995      6.11383     28.52333        -0.000525      0.000484      0.000508
     -1.76495      6.11385      1.47658        -0.000106      0.000804     -0.000474
      4.41238      4.58512     28.52319        -0.000277     -0.000792     -0.000570
      6.17743      4.58510      1.47685         0.000641     -0.000829     -0.000616
      1.76505      6.11363     28.52334        -0.000306      0.001095     -0.000253
      3.52980      6.11364      1.47668        -0.000287      0.001049      0.000565
     -0.88244      7.64233     28.52337        -0.000564      0.000315      0.001491
      0.88237      7.64235      1.47678         0.000812      0.000550     -0.000924
 -----------------------------------------------------------------------------------
    total drift:                                0.000084      0.000529     -0.000015


--------------------------------------------------------------------------------------------------------



  FREE ENERGIE OF THE ION-ELECTRON SYSTEM (eV)
  ---------------------------------------------------
  free  energy   TOTEN  =      -173.17202344 eV

  energy  without entropy=     -172.85469433  energy(sigma->0) =     -173.01335889
 
 d Force = 0.2719027E-03[-0.129E-05, 0.545E-03]  d Energy = 0.4392694E-03-0.167E-03
 d Force =-0.2344561E+02[-0.234E+02,-0.235E+02]  d Ewald  = 0.6967480E+02-0.931E+02


--------------------------------------------------------------------------------------------------------


    POTLOK:  cpu time    0.0382: real time    0.0383


--------------------------------------------------------------------------------------------------------


 Quasi-Newton relaxation of ions (Broydens 2nd method)
  g(Force)  = 0.286E-05   g(Stress)= 0.693E-05

 retain information from N=  1 steps
 eigenvalues of (default step * inverse Hessian matrix)
  average eigenvalue of G=   2.3523
 eigenvalue spectrum of G is  2.3523


--------------------------------------------------------------------------------------------------------


  
 reached required accuracy - stopping structural energy minimisation
     LOOP+:  cpu time  286.9114: real time  287.6401
    4ORBIT:  cpu time    0.0000: real time    0.0000

 total amount of memory used by VASP on root node   392763. kBytes
========================================================================

   base      :      30000. kBytes
   nonl-proj :     285944. kBytes
   fftplans  :       2791. kBytes
   grid      :      12055. kBytes
   one-center:        419. kBytes
   wavefun   :      61554. kBytes
 
  
  
 General timing and accounting informations for this job:
 ========================================================
  
                  Total CPU time used (sec):     3515.708
                            User time (sec):     3510.594
                          System time (sec):        5.114
                         Elapsed time (sec):     7873.954
  
                   Maximum memory used (kb):      507552.
                   Average memory used (kb):           0.
  
                          Minor page faults:       494535
                          Major page faults:           11
                 Voluntary context switches:         5574
