<?xml version="1.0" encoding="ISO-8859-1"?>
<modeling>
 <generator>
  <i name="program" type="string">vasp </i>
  <i name="version" type="string">5.4.1  </i>
  <i name="subversion" type="string">05Feb16 (build Jul 05 2020 17:13:04) complex                          parallel </i>
  <i name="platform" type="string">IFC91_ompi </i>
  <i name="date" type="string">2024 04 05 </i>
  <i name="time" type="string">10:55:14 </i>
 </generator>
 <incar>
  <i type="int" name="ISTART">     0</i>
  <i type="string" name="PREC">normal</i>
  <i type="string" name="ALGO"> Normal</i>
  <i type="int" name="ISPIN">     1</i>
  <i type="int" name="ICHARG">     2</i>
  <i type="int" name="IBRION">     1</i>
  <i type="int" name="NSW">   100</i>
  <i type="int" name="ISIF">     3</i>
  <i type="int" name="ISYM">     0</i>
  <i name="SYMPREC">      0.00000001</i>
  <i name="POTIM">      0.50000000</i>
  <i type="logical" name="LREAL"> F  </i>
  <i type="logical" name="LPLANE"> F  </i>
  <i type="int" name="ISMEAR">     0</i>
  <i type="logical" name="LWAVE"> F  </i>
  <i type="logical" name="LCHARG"> F  </i>
  <v type="int" name="KPOINT_BSE">    -1     0     0     0</v>
 </incar>
 <kpoints>
  <generation param="Gamma">
   <v type="int" name="divisions">       8        8        1 </v>
   <v name="usershift">      0.00000000       0.00000000       0.00000000 </v>
   <v name="genvec1">      0.12500000       0.00000000       0.00000000 </v>
   <v name="genvec2">     -0.00000000       0.12500000       0.00000000 </v>
   <v name="genvec3">      0.00000000       0.00000000       1.00000000 </v>
   <v name="shift">      0.00000000       0.00000000       0.00000000 </v>
  </generation>
  <varray name="kpointlist" >
   <v>       0.00000000       0.00000000       0.00000000 </v>
   <v>       0.12500000       0.00000000       0.00000000 </v>
   <v>       0.25000000       0.00000000       0.00000000 </v>
   <v>       0.37500000       0.00000000       0.00000000 </v>
   <v>       0.50000000       0.00000000       0.00000000 </v>
   <v>       0.00000000       0.12500000       0.00000000 </v>
   <v>       0.12500000       0.12500000       0.00000000 </v>
   <v>       0.25000000       0.12500000       0.00000000 </v>
   <v>       0.37500000       0.12500000       0.00000000 </v>
   <v>       0.50000000       0.12500000       0.00000000 </v>
   <v>      -0.37500000       0.12500000       0.00000000 </v>
   <v>      -0.25000000       0.12500000       0.00000000 </v>
   <v>      -0.12500000       0.12500000       0.00000000 </v>
   <v>       0.00000000       0.25000000       0.00000000 </v>
   <v>       0.12500000       0.25000000       0.00000000 </v>
   <v>       0.25000000       0.25000000       0.00000000 </v>
   <v>       0.37500000       0.25000000       0.00000000 </v>
   <v>       0.50000000       0.25000000       0.00000000 </v>
   <v>      -0.37500000       0.25000000       0.00000000 </v>
   <v>      -0.25000000       0.25000000       0.00000000 </v>
   <v>      -0.12500000       0.25000000       0.00000000 </v>
   <v>      -0.00000000       0.37500000       0.00000000 </v>
   <v>       0.12500000       0.37500000       0.00000000 </v>
   <v>       0.25000000       0.37500000       0.00000000 </v>
   <v>       0.37500000       0.37500000       0.00000000 </v>
   <v>       0.50000000       0.37500000       0.00000000 </v>
   <v>      -0.37500000       0.37500000       0.00000000 </v>
   <v>      -0.25000000       0.37500000       0.00000000 </v>
   <v>      -0.12500000       0.37500000       0.00000000 </v>
   <v>       0.00000000       0.50000000       0.00000000 </v>
   <v>       0.12500000       0.50000000       0.00000000 </v>
   <v>       0.25000000       0.50000000       0.00000000 </v>
   <v>       0.37500000       0.50000000       0.00000000 </v>
   <v>       0.50000000       0.50000000       0.00000000 </v>
  </varray>
  <varray name="weights" >
   <v>       0.01562500 </v>
   <v>       0.03125000 </v>
   <v>       0.03125000 </v>
   <v>       0.03125000 </v>
   <v>       0.01562500 </v>
   <v>       0.03125000 </v>
   <v>       0.03125000 </v>
   <v>       0.03125000 </v>
   <v>       0.03125000 </v>
   <v>       0.03125000 </v>
   <v>       0.03125000 </v>
   <v>       0.03125000 </v>
   <v>       0.03125000 </v>
   <v>       0.03125000 </v>
   <v>       0.03125000 </v>
   <v>       0.03125000 </v>
   <v>       0.03125000 </v>
   <v>       0.03125000 </v>
   <v>       0.03125000 </v>
   <v>       0.03125000 </v>
   <v>       0.03125000 </v>
   <v>       0.03125000 </v>
   <v>       0.03125000 </v>
   <v>       0.03125000 </v>
   <v>       0.03125000 </v>
   <v>       0.03125000 </v>
   <v>       0.03125000 </v>
   <v>       0.03125000 </v>
   <v>       0.03125000 </v>
   <v>       0.01562500 </v>
   <v>       0.03125000 </v>
   <v>       0.03125000 </v>
   <v>       0.03125000 </v>
   <v>       0.01562500 </v>
  </varray>
 </kpoints>
 <parameters>
  <separator name="general" >
   <i type="string" name="SYSTEM">unknown system</i>
   <i type="logical" name="LCOMPAT"> F  </i>
  </separator>
  <separator name="electronic" >
   <i type="string" name="PREC">normal</i>
   <i name="ENMAX">    280.00000000</i>
   <i name="ENAUG">    402.10800000</i>
   <i name="EDIFF">      0.00010000</i>
   <i type="int" name="IALGO">    38</i>
   <i type="int" name="IWAVPR">    11</i>
   <i type="int" name="NBANDS">   128</i>
   <i name="NELECT">    162.00000000</i>
   <i type="int" name="TURBO">     0</i>
   <i type="int" name="IRESTART">     0</i>
   <i type="int" name="NREBOOT">     0</i>
   <i type="int" name="NMIN">     0</i>
   <i name="EREF">      0.00000000</i>
   <separator name="electronic smearing" >
    <i type="int" name="ISMEAR">     0</i>
    <i name="SIGMA">      0.20000000</i>
    <i name="KSPACING">      0.50000000</i>
    <i type="logical" name="KGAMMA"> T  </i>
   </separator>
   <separator name="electronic projectors" >
    <i type="logical" name="LREAL"> F  </i>
    <v name="ROPT">      0.00000000      0.00000000</v>
    <i type="int" name="LMAXPAW">  -100</i>
    <i type="int" name="LMAXMIX">     2</i>
    <i type="logical" name="NLSPLINE"> F  </i>
   </separator>
   <separator name="electronic startup" >
    <i type="int" name="ISTART">     0</i>
    <i type="int" name="ICHARG">     2</i>
    <i type="int" name="INIWAV">     1</i>
   </separator>
   <separator name="electronic spin" >
    <i type="int" name="ISPIN">     1</i>
    <i type="logical" name="LNONCOLLINEAR"> F  </i>
    <v name="MAGMOM">      1.00000000      1.00000000      1.00000000      1.00000000      1.00000000      1.00000000      1.00000000      1.00000000      1.00000000      1.00000000      1.00000000      1.00000000      1.00000000      1.00000000      1.00000000      1.00000000      1.00000000      1.00000000      1.00000000      1.00000000
      1.00000000      1.00000000      1.00000000      1.00000000      1.00000000      1.00000000      1.00000000</v>
    <i name="NUPDOWN">     -1.00000000</i>
    <i type="logical" name="LSORBIT"> F  </i>
    <v name="SAXIS">      0.00000000      0.00000000      1.00000000</v>
    <i type="logical" name="LSPIRAL"> F  </i>
    <v name="QSPIRAL">      0.00000000      0.00000000      0.00000000</v>
    <i type="logical" name="LZEROZ"> F  </i>
   </separator>
   <separator name="electronic exchange-correlation" >
    <i type="logical" name="LASPH"> F  </i>
    <i type="logical" name="LMETAGGA"> F  </i>
   </separator>
   <separator name="electronic convergence" >
    <i type="int" name="NELM">    60</i>
    <i type="int" name="NELMDL">    -5</i>
    <i type="int" name="NELMIN">     2</i>
    <i name="ENINI">    280.00000000</i>
    <separator name="electronic convergence detail" >
     <i type="logical" name="LDIAG"> T  </i>
     <i type="logical" name="LSUBROT"> F  </i>
     <i name="WEIMIN">      0.00100000</i>
     <i name="EBREAK">      0.00000020</i>
     <i name="DEPER">      0.30000000</i>
     <i type="int" name="NRMM">     4</i>
     <i name="TIME">      0.40000000</i>
    </separator>
   </separator>
   <separator name="electronic mixer" >
    <i name="AMIX">      0.40000000</i>
    <i name="BMIX">      1.00000000</i>
    <i name="AMIN">      0.10000000</i>
    <i name="AMIX_MAG">      1.60000000</i>
    <i name="BMIX_MAG">      1.00000000</i>
    <separator name="electronic mixer details" >
     <i type="int" name="IMIX">     4</i>
     <i type="logical" name="MIXFIRST"> F  </i>
     <i type="int" name="MAXMIX">   -45</i>
     <i name="WC">    100.00000000</i>
     <i type="int" name="INIMIX">     1</i>
     <i type="int" name="MIXPRE">     1</i>
     <i type="int" name="MREMOVE">     5</i>
    </separator>
   </separator>
   <separator name="electronic dipolcorrection" >
    <i type="logical" name="LDIPOL"> F  </i>
    <i type="logical" name="LMONO"> F  </i>
    <i type="int" name="IDIPOL">     0</i>
    <i name="EPSILON">      1.00000000</i>
    <v name="DIPOL">   -100.00000000   -100.00000000   -100.00000000</v>
    <i name="EFIELD">      0.00000000</i>
   </separator>
  </separator>
  <separator name="grids" >
   <i type="int" name="NGX">    42</i>
   <i type="int" name="NGY">    42</i>
   <i type="int" name="NGZ">   126</i>
   <i type="int" name="NGXF">    84</i>
   <i type="int" name="NGYF">    84</i>
   <i type="int" name="NGZF">   252</i>
   <i type="logical" name="ADDGRID"> F  </i>
  </separator>
  <separator name="ionic" >
   <i type="int" name="NSW">   100</i>
   <i type="int" name="IBRION">     1</i>
   <i type="int" name="ISIF">     3</i>
   <i name="PSTRESS">      0.00000000</i>
   <i name="EDIFFG">      0.00100000</i>
   <i type="int" name="NFREE">     0</i>
   <i name="POTIM">      0.50000000</i>
   <i name="SMASS">     -3.00000000</i>
   <i name="SCALEE">      1.00000000</i>
  </separator>
  <separator name="ionic md" >
   <i name="TEBEG">      0.00010000</i>
   <i name="TEEND">      0.00010000</i>
   <i type="int" name="NBLOCK">     1</i>
   <i type="int" name="KBLOCK">   100</i>
   <i type="int" name="NPACO">   256</i>
   <i name="APACO">     16.00000000</i>
  </separator>
  <separator name="symmetry" >
   <i type="int" name="ISYM">     0</i>
   <i name="SYMPREC">      0.00000001</i>
  </separator>
  <separator name="dos" >
   <i type="logical" name="LORBIT"> F  </i>
   <v name="RWIGS">     -1.00000000     -1.00000000</v>
   <i type="int" name="NEDOS">   301</i>
   <i name="EMIN">     10.00000000</i>
   <i name="EMAX">    -10.00000000</i>
   <i name="EFERMI">      0.00000000</i>
  </separator>
  <separator name="writing" >
   <i type="int" name="NWRITE">     2</i>
   <i type="logical" name="LWAVE"> F  </i>
   <i type="logical" name="LCHARG"> F  </i>
   <i type="logical" name="LPARD"> F  </i>
   <i type="logical" name="LVTOT"> F  </i>
   <i type="logical" name="LVHAR"> F  </i>
   <i type="logical" name="LELF"> F  </i>
   <i type="logical" name="LOPTICS"> F  </i>
   <v name="STM">      0.00000000      0.00000000      0.00000000      0.00000000      0.00000000      0.00000000      0.00000000</v>
  </separator>
  <separator name="performance" >
   <i type="int" name="NPAR">    32</i>
   <i type="int" name="NSIM">     4</i>
   <i type="int" name="NBLK">    -1</i>
   <i type="logical" name="LPLANE"> F  </i>
   <i type="logical" name="LSCALAPACK"> T  </i>
   <i type="logical" name="LSCAAWARE"> F  </i>
   <i type="logical" name="LSCALU"> F  </i>
   <i type="logical" name="LASYNC"> F  </i>
   <i type="logical" name="LORBITALREAL"> F  </i>
  </separator>
  <separator name="miscellaneous" >
   <i type="int" name="IDIOT">     3</i>
   <i type="logical" name="LMUSIC"> F  </i>
   <v name="POMASS">     51.99600000     32.06600000</v>
   <v name="DARWINR">      0.00000000      0.00000000</v>
   <v name="DARWINV">      1.00000000      1.00000000</v>
   <i type="logical" name="LCORR"> T  </i>
  </separator>
  <i type="logical" name="GGA_COMPAT"> T  </i>
  <i type="logical" name="LBERRY"> F  </i>
  <i type="int" name="ICORELEVEL">     0</i>
  <i type="logical" name="LDAU"> F  </i>
  <i type="int" name="I_CONSTRAINED_M">     0</i>
  <separator name="electronic exchange-correlation" >
   <i type="string" name="GGA">--</i>
   <i type="int" name="VOSKOWN">     0</i>
   <i type="logical" name="LHFCALC"> F  </i>
   <i type="string" name="PRECFOCK"></i>
   <i type="logical" name="LSYMGRAD"> F  </i>
   <i type="logical" name="LHFONE"> F  </i>
   <i type="logical" name="LRHFCALC"> F  </i>
   <i type="logical" name="LTHOMAS"> F  </i>
   <i type="logical" name="LMODELHF"> F  </i>
   <i name="ENCUT4O">     -1.00000000</i>
   <i type="int" name="EXXOEP">     0</i>
   <i type="int" name="FOURORBIT">     0</i>
   <i name="AEXX">      0.00000000</i>
   <i name="HFALPHA">      0.00000000</i>
   <i name="MCALPHA">      0.00000000</i>
   <i name="ALDAX">      1.00000000</i>
   <i name="AGGAX">      1.00000000</i>
   <i name="ALDAC">      1.00000000</i>
   <i name="AGGAC">      1.00000000</i>
   <i type="int" name="NKREDX">     1</i>
   <i type="int" name="NKREDY">     1</i>
   <i type="int" name="NKREDZ">     1</i>
   <i type="logical" name="SHIFTRED"> F  </i>
   <i type="logical" name="ODDONLY"> F  </i>
   <i type="logical" name="EVENONLY"> F  </i>
   <i type="int" name="LMAXFOCK">     0</i>
   <i type="int" name="NMAXFOCKAE">     0</i>
   <i type="logical" name="LFOCKAEDFT"> F  </i>
   <i name="HFSCREEN">      0.00000000</i>
   <i name="HFSCREENC">      0.00000000</i>
   <i type="int" name="NBANDSGWLOW">     0</i>
  </separator>
  <separator name="vdW DFT" >
   <i type="logical" name="LUSE_VDW"> F  </i>
   <i name="Zab_VDW">     -0.84910000</i>
   <i name="PARAM1">      0.12340000</i>
   <i name="PARAM2">      1.00000000</i>
   <i name="PARAM3">      0.00000000</i>
  </separator>
  <separator name="model GW" >
   <i type="int" name="MODEL_GW">     0</i>
   <i name="MODEL_EPS0">     58.26239943</i>
   <i name="MODEL_ALPHA">      1.00000000</i>
  </separator>
  <separator name="linear response parameters" >
   <i type="logical" name="LEPSILON"> F  </i>
   <i type="logical" name="LRPA"> F  </i>
   <i type="logical" name="LNABLA"> F  </i>
   <i type="logical" name="LVEL"> F  </i>
   <i type="int" name="KINTER">     0</i>
   <i name="CSHIFT">      0.10000000</i>
   <i name="OMEGAMAX">     -1.00000000</i>
   <i name="DEG_THRESHOLD">      0.00200000</i>
  </separator>
  <separator name="orbital magnetization" >
   <i type="logical" name="NUCIND"> F  </i>
   <v name="MAGPOS">      0.00000000      0.00000000      0.00000000</v>
   <i type="logical" name="LNICSALL"> T  </i>
   <i type="logical" name="ORBITALMAG"> F  </i>
   <i type="logical" name="LMAGBLOCH"> F  </i>
   <i type="logical" name="LCHIMAG"> F  </i>
   <i type="logical" name="LGAUGE"> T  </i>
   <i type="int" name="MAGATOM">     0</i>
   <v name="MAGDIPOL">      0.00000000      0.00000000      0.00000000</v>
   <v name="AVECCONST">      0.00000000      0.00000000      0.00000000</v>
  </separator>
  <separator name="response functions" >
   <i type="logical" name="LADDER"> F  </i>
   <i type="logical" name="LFXC"> F  </i>
   <i type="logical" name="LHARTREE"> T  </i>
   <i type="int" name="IBSE">     0</i>
   <v type="int" name="KPOINT">    -1     0     0     0</v>
   <i type="logical" name="LTCTE"> F  </i>
   <i type="logical" name="LTETE"> F  </i>
   <i type="logical" name="LTRIPLET"> F  </i>
   <i type="logical" name="LFXCEPS"> F  </i>
   <i type="logical" name="LFXHEG"> F  </i>
   <i type="int" name="NATURALO">     0</i>
   <i type="logical" name="L2ORDER"> F  </i>
   <i type="logical" name="LUSEW"> F  </i>
   <i name="ENCUTGW">     -2.00000000</i>
   <i name="ENCUTGWSOFT">     -2.00000000</i>
   <i name="ENCUTLF">     -1.00000000</i>
   <i type="int" name="LMAXMP2">    -1</i>
   <i name="SCISSOR">      0.00000000</i>
   <i type="int" name="NOMEGA">     0</i>
   <i type="int" name="NOMEGAR">     0</i>
   <i type="int" name="NBANDSGW">    -1</i>
   <i type="int" name="NBANDSO">    -1</i>
   <i type="int" name="NBANDSV">    -1</i>
   <i type="int" name="NELM">     1</i>
   <i type="int" name="NELMHF">     1</i>
   <i type="int" name="DIM">     3</i>
   <i type="int" name="ANTIRES">     0</i>
   <i name="OMEGAMAX">    -30.00000000</i>
   <i name="OMEGAMIN">    -30.00000000</i>
   <i name="OMEGATL">   -200.00000000</i>
   <i type="int" name="OMEGAGRID">     0</i>
   <i name="CSHIFT">     -0.10000000</i>
   <i type="logical" name="SELFENERGY"> F  </i>
   <i type="logical" name="LSPECTRAL"> F  </i>
   <i type="logical" name="LSPECTRALGW"> F  </i>
   <i type="logical" name="LSINGLES"> F  </i>
   <i type="logical" name="LFERMIGW"> F  </i>
   <i type="logical" name="ODDONLYGW"> F  </i>
   <i type="logical" name="EVENONLYGW"> F  </i>
   <i type="int" name="NKREDLFX">     1</i>
   <i type="int" name="NKREDLFY">     1</i>
   <i type="int" name="NKREDLFZ">     1</i>
   <i type="int" name="MAXMEM">  1800</i>
   <i type="int" name="TELESCOPE">     0</i>
   <i type="int" name="TAUPAR">     1</i>
   <i type="int" name="OMEGAPAR">    -1</i>
   <i name="LAMBDA">      1.00000000</i>
  </separator>
  <separator name="External order field" >
   <i name="OFIELD_KAPPA">      0.00000000</i>
   <v name="OFIELD_K">      0.00000000      0.00000000      0.00000000</v>
   <i name="OFIELD_Q6_NEAR">      0.00000000</i>
   <i name="OFIELD_Q6_FAR">      0.00000000</i>
   <i name="OFIELD_A">      0.00000000</i>
  </separator>
 </parameters>
 <atominfo>
  <atoms>      27 </atoms>
  <types>       2 </types>
  <array name="atoms" >
   <dimension dim="1">ion</dimension>
   <field type="string">element</field>
   <field type="int">atomtype</field>
   <set>
    <rc><c>Cr</c><c>   1</c></rc>
    <rc><c>Cr</c><c>   1</c></rc>
    <rc><c>Cr</c><c>   1</c></rc>
    <rc><c>Cr</c><c>   1</c></rc>
    <rc><c>Cr</c><c>   1</c></rc>
    <rc><c>Cr</c><c>   1</c></rc>
    <rc><c>Cr</c><c>   1</c></rc>
    <rc><c>Cr</c><c>   1</c></rc>
    <rc><c>Cr</c><c>   1</c></rc>
    <rc><c>S </c><c>   2</c></rc>
    <rc><c>S </c><c>   2</c></rc>
    <rc><c>S </c><c>   2</c></rc>
    <rc><c>S </c><c>   2</c></rc>
    <rc><c>S </c><c>   2</c></rc>
    <rc><c>S </c><c>   2</c></rc>
    <rc><c>S </c><c>   2</c></rc>
    <rc><c>S </c><c>   2</c></rc>
    <rc><c>S </c><c>   2</c></rc>
    <rc><c>S </c><c>   2</c></rc>
    <rc><c>S </c><c>   2</c></rc>
    <rc><c>S </c><c>   2</c></rc>
    <rc><c>S </c><c>   2</c></rc>
    <rc><c>S </c><c>   2</c></rc>
    <rc><c>S </c><c>   2</c></rc>
    <rc><c>S </c><c>   2</c></rc>
    <rc><c>S </c><c>   2</c></rc>
    <rc><c>S </c><c>   2</c></rc>
   </set>
  </array>
  <array name="atomtypes" >
   <dimension dim="1">type</dimension>
   <field type="int">atomspertype</field>
   <field type="string">element</field>
   <field>mass</field>
   <field>valence</field>
   <field type="string">pseudopotential</field>
   <set>
    <rc><c>   9</c><c>Cr</c><c>     51.99600000</c><c>      6.00000000</c><c> PAW_PBE Cr 06Sep2000                   </c></rc>
    <rc><c>  18</c><c>S </c><c>     32.06600000</c><c>      6.00000000</c><c>  PAW_PBE S 17Jan2003                   </c></rc>
   </set>
  </array>
 </atominfo>
 <structure name="initialpos" >
  <crystal>
   <varray name="basis" >
    <v>       8.66999996       5.03999989       0.00000000 </v>
    <v>      -8.66999982       5.04000013       0.00000000 </v>
    <v>       0.00000000       0.00000000      30.00000000 </v>
   </varray>
   <i name="volume">   2621.80797419 </i>
   <varray name="rec_basis" >
    <v>       0.05767013       0.09920635       0.00000000 </v>
    <v>      -0.05767013       0.09920635       0.00000000 </v>
    <v>       0.00000000       0.00000000       0.03333333 </v>
   </varray>
  </crystal>
  <varray name="positions" >
   <v>       0.00000000       0.00000000       0.00000000 </v>
   <v>       1.00000000       0.33333334       0.00000000 </v>
   <v>       0.00000000       0.66666669       0.00000000 </v>
   <v>       0.33333334       0.00000000       0.00000000 </v>
   <v>       0.33333334       0.33333334       0.00000000 </v>
   <v>       0.33333334       0.66666669       0.00000000 </v>
   <v>       0.66666669       0.00000000       0.00000000 </v>
   <v>       0.66666669       0.33333334       0.00000000 </v>
   <v>       0.66666669       0.66666669       0.00000000 </v>
   <v>       0.11068511       0.22244981       0.95539999 </v>
   <v>       0.22244981       0.11068511       0.04460000 </v>
   <v>       0.11068511       0.55578315       0.95539999 </v>
   <v>       0.22244981       0.44401845       0.04460000 </v>
   <v>       0.11068511       0.88911647       0.95539999 </v>
   <v>       0.22244981       0.77735180       0.04460000 </v>
   <v>       0.44401845       0.22244981       0.95539999 </v>
   <v>       0.55578315       0.11068511       0.04460000 </v>
   <v>       0.44401845       0.55578315       0.95539999 </v>
   <v>       0.55578315       0.44401845       0.04460000 </v>
   <v>       0.44401845       0.88911647       0.95539999 </v>
   <v>       0.55578315       0.77735180       0.04460000 </v>
   <v>       0.77735180       0.22244981       0.95539999 </v>
   <v>       0.88911647       0.11068511       0.04460000 </v>
   <v>       0.77735180       0.55578315       0.95539999 </v>
   <v>       0.88911647       0.44401845       0.04460000 </v>
   <v>       0.77735180       0.88911647       0.95539999 </v>
   <v>       0.88911647       0.77735180       0.04460000 </v>
  </varray>
 </structure>
 <calculation>
  <scstep>
   <time name="dav">   27.27   27.56</time>
   <time name="total">   27.34   27.63</time>
   <energy>
    <i name="alphaZ">     66.26837034 </i>
    <i name="ewald">  43618.70461814 </i>
    <i name="hartreedc"> -50141.92090626 </i>
    <i name="XCdc">     40.78482037 </i>
    <i name="pawpsdc">   3826.37693678 </i>
    <i name="pawaedc">  -3590.23280660 </i>
    <i name="eentropy">     -0.75306371 </i>
    <i name="bandstr">   -144.29951521 </i>
    <i name="atom">   7475.22437441 </i>
    <i name="e_fr_energy">   1150.15282826 </i>
    <i name="e_wo_entrp">   1150.90589197 </i>
    <i name="e_0_energy">   1150.52936011 </i>
   </energy>
  </scstep>
  <scstep>
   <time name="dav">   30.02   30.11</time>
   <time name="total">   30.02   30.12</time>
   <energy>
    <i name="e_fr_energy">     60.19643180 </i>
    <i name="e_wo_entrp">     60.60471727 </i>
    <i name="e_0_energy">     60.40057454 </i>
   </energy>
  </scstep>
  <scstep>
   <time name="dav">   38.35   38.44</time>
   <time name="total">   38.35   38.45</time>
   <energy>
    <i name="e_fr_energy">   -191.76479277 </i>
    <i name="e_wo_entrp">   -191.42093231 </i>
    <i name="e_0_energy">   -191.59286254 </i>
   </energy>
  </scstep>
  <scstep>
   <time name="dav">   33.24   33.32</time>
   <time name="total">   33.24   33.33</time>
   <energy>
    <i name="e_fr_energy">   -206.02890614 </i>
    <i name="e_wo_entrp">   -205.64157018 </i>
    <i name="e_0_energy">   -205.83523816 </i>
   </energy>
  </scstep>
  <scstep>
   <time name="dav">   36.23   36.32</time>
   <time name="total">   36.87   36.97</time>
   <energy>
    <i name="e_fr_energy">   -206.51513962 </i>
    <i name="e_wo_entrp">   -206.12526239 </i>
    <i name="e_0_energy">   -206.32020101 </i>
   </energy>
  </scstep>
  <scstep>
   <time name="dav">   37.85   37.94</time>
   <time name="total">   38.44   38.60</time>
   <energy>
    <i name="e_fr_energy">   -297.41221001 </i>
    <i name="e_wo_entrp">   -297.04057739 </i>
    <i name="e_0_energy">   -297.22639370 </i>
   </energy>
  </scstep>
  <scstep>
   <time name="dav">   33.79   33.87</time>
   <time name="total">   34.46   34.55</time>
   <energy>
    <i name="e_fr_energy">   -172.74696254 </i>
    <i name="e_wo_entrp">   -172.34145605 </i>
    <i name="e_0_energy">   -172.54420930 </i>
   </energy>
  </scstep>
  <scstep>
   <time name="dav">   30.51   30.58</time>
   <time name="total">   31.18   31.26</time>
   <energy>
    <i name="e_fr_energy">   -174.17483382 </i>
    <i name="e_wo_entrp">   -173.71921084 </i>
    <i name="e_0_energy">   -173.94702233 </i>
   </energy>
  </scstep>
  <scstep>
   <time name="dav">   40.09   40.19</time>
   <time name="total">   40.76   40.86</time>
   <energy>
    <i name="e_fr_energy">   -169.83143972 </i>
    <i name="e_wo_entrp">   -169.19715020 </i>
    <i name="e_0_energy">   -169.51429496 </i>
   </energy>
  </scstep>
  <scstep>
   <time name="dav">   39.39   39.49</time>
   <time name="total">   40.06   40.16</time>
   <energy>
    <i name="e_fr_energy">   -170.40106090 </i>
    <i name="e_wo_entrp">   -169.78392740 </i>
    <i name="e_0_energy">   -170.09249415 </i>
   </energy>
  </scstep>
  <scstep>
   <time name="dav">   38.40   38.49</time>
   <time name="total">   39.07   39.38</time>
   <energy>
    <i name="e_fr_energy">   -169.87454790 </i>
    <i name="e_wo_entrp">   -169.29321585 </i>
    <i name="e_0_energy">   -169.58388187 </i>
   </energy>
  </scstep>
  <scstep>
   <time name="dav">   36.63   36.72</time>
   <time name="total">   37.29   37.39</time>
   <energy>
    <i name="e_fr_energy">   -170.15419724 </i>
    <i name="e_wo_entrp">   -169.56701813 </i>
    <i name="e_0_energy">   -169.86060768 </i>
   </energy>
  </scstep>
  <scstep>
   <time name="dav">   39.68   39.77</time>
   <time name="total">   40.35   40.45</time>
   <energy>
    <i name="e_fr_energy">   -169.78686975 </i>
    <i name="e_wo_entrp">   -169.20072568 </i>
    <i name="e_0_energy">   -169.49379772 </i>
   </energy>
  </scstep>
  <scstep>
   <time name="dav">   35.89   35.98</time>
   <time name="total">   36.55   36.65</time>
   <energy>
    <i name="e_fr_energy">   -169.77289512 </i>
    <i name="e_wo_entrp">   -169.18628175 </i>
    <i name="e_0_energy">   -169.47958843 </i>
   </energy>
  </scstep>
  <scstep>
   <time name="dav">   36.69   36.78</time>
   <time name="total">   37.36   37.45</time>
   <energy>
    <i name="e_fr_energy">   -169.76504387 </i>
    <i name="e_wo_entrp">   -169.17148776 </i>
    <i name="e_0_energy">   -169.46826581 </i>
   </energy>
  </scstep>
  <scstep>
   <time name="dav">   38.48   38.57</time>
   <time name="total">   39.14   39.24</time>
   <energy>
    <i name="e_fr_energy">   -169.76370863 </i>
    <i name="e_wo_entrp">   -169.16947514 </i>
    <i name="e_0_energy">   -169.46659189 </i>
   </energy>
  </scstep>
  <scstep>
   <time name="dav">   38.61   38.70</time>
   <time name="total">   39.28   39.37</time>
   <energy>
    <i name="e_fr_energy">   -169.76098370 </i>
    <i name="e_wo_entrp">   -169.15753445 </i>
    <i name="e_0_energy">   -169.45925908 </i>
   </energy>
  </scstep>
  <scstep>
   <time name="dav">   39.12   39.21</time>
   <time name="total">   39.79   39.89</time>
   <energy>
    <i name="e_fr_energy">   -169.76275939 </i>
    <i name="e_wo_entrp">   -169.15937606 </i>
    <i name="e_0_energy">   -169.46106773 </i>
   </energy>
  </scstep>
  <scstep>
   <time name="dav">   34.49   34.57</time>
   <time name="total">   35.16   35.25</time>
   <energy>
    <i name="e_fr_energy">   -169.76013704 </i>
    <i name="e_wo_entrp">   -169.15674641 </i>
    <i name="e_0_energy">   -169.45844173 </i>
   </energy>
  </scstep>
  <scstep>
   <time name="dav">   37.61   37.70</time>
   <time name="total">   38.27   38.37</time>
   <energy>
    <i name="e_fr_energy">   -169.76027817 </i>
    <i name="e_wo_entrp">   -169.15768615 </i>
    <i name="e_0_energy">   -169.45898216 </i>
   </energy>
  </scstep>
  <scstep>
   <time name="dav">   28.68   28.75</time>
   <time name="total">   29.35   29.43</time>
   <energy>
    <i name="e_fr_energy">   -169.76036816 </i>
    <i name="e_wo_entrp">   -169.15786939 </i>
    <i name="e_0_energy">   -169.45911878 </i>
   </energy>
  </scstep>
  <scstep>
   <time name="dav">   30.10   30.18</time>
   <time name="total">   30.77   30.85</time>
   <energy>
    <i name="e_fr_energy">   -169.76166391 </i>
    <i name="e_wo_entrp">   -169.16002150 </i>
    <i name="e_0_energy">   -169.46084270 </i>
   </energy>
  </scstep>
  <scstep>
   <time name="dav">   26.66   26.73</time>
   <time name="total">   27.33   27.40</time>
   <energy>
    <i name="e_fr_energy">   -169.76282577 </i>
    <i name="e_wo_entrp">   -169.16142036 </i>
    <i name="e_0_energy">   -169.46212306 </i>
   </energy>
  </scstep>
  <scstep>
   <time name="dav">   24.11   24.17</time>
   <time name="total">   24.15   24.21</time>
   <energy>
    <i name="alphaZ">     66.26837034 </i>
    <i name="ewald">  43618.70461814 </i>
    <i name="hartreedc"> -50190.99538572 </i>
    <i name="XCdc">     44.48746081 </i>
    <i name="pawpsdc">   4267.54039946 </i>
    <i name="pawaedc">  -4031.09175239 </i>
    <i name="eentropy">     -0.60139406 </i>
    <i name="bandstr">  -1419.29960933 </i>
    <i name="atom">   7475.22437441 </i>
    <i name="e_fr_energy">   -169.76291835 </i>
    <i name="e_wo_entrp">   -169.16152429 </i>
    <i name="e_0_energy">   -169.46222132 </i>
   </energy>
  </scstep>
  <structure>
   <crystal>
    <varray name="basis" >
     <v>       8.66999996       5.03999989       0.00000000 </v>
     <v>      -8.66999982       5.04000013       0.00000000 </v>
     <v>       0.00000000       0.00000000      30.00000000 </v>
    </varray>
    <i name="volume">   2621.80797419 </i>
    <varray name="rec_basis" >
     <v>       0.05767013       0.09920635       0.00000000 </v>
     <v>      -0.05767013       0.09920635       0.00000000 </v>
     <v>       0.00000000       0.00000000       0.03333333 </v>
    </varray>
   </crystal>
   <varray name="positions" >
    <v>       0.00000000       0.00000000       0.00000000 </v>
    <v>       1.00000000       0.33333334       0.00000000 </v>
    <v>       0.00000000       0.66666669       0.00000000 </v>
    <v>       0.33333334       0.00000000       0.00000000 </v>
    <v>       0.33333334       0.33333334       0.00000000 </v>
    <v>       0.33333334       0.66666669       0.00000000 </v>
    <v>       0.66666669       0.00000000       0.00000000 </v>
    <v>       0.66666669       0.33333334       0.00000000 </v>
    <v>       0.66666669       0.66666669       0.00000000 </v>
    <v>       0.11068511       0.22244981       0.95539999 </v>
    <v>       0.22244981       0.11068511       0.04460000 </v>
    <v>       0.11068511       0.55578315       0.95539999 </v>
    <v>       0.22244981       0.44401845       0.04460000 </v>
    <v>       0.11068511       0.88911647       0.95539999 </v>
    <v>       0.22244981       0.77735180       0.04460000 </v>
    <v>       0.44401845       0.22244981       0.95539999 </v>
    <v>       0.55578315       0.11068511       0.04460000 </v>
    <v>       0.44401845       0.55578315       0.95539999 </v>
    <v>       0.55578315       0.44401845       0.04460000 </v>
    <v>       0.44401845       0.88911647       0.95539999 </v>
    <v>       0.55578315       0.77735180       0.04460000 </v>
    <v>       0.77735180       0.22244981       0.95539999 </v>
    <v>       0.88911647       0.11068511       0.04460000 </v>
    <v>       0.77735180       0.55578315       0.95539999 </v>
    <v>       0.88911647       0.44401845       0.04460000 </v>
    <v>       0.77735180       0.88911647       0.95539999 </v>
    <v>       0.88911647       0.77735180       0.04460000 </v>
   </varray>
  </structure>
  <varray name="forces" >
   <v>      -0.00036707       0.00418762      -0.00020128 </v>
   <v>       0.00044054       0.00323168      -0.00006955 </v>
   <v>      -0.00108248       0.00404982      -0.00010561 </v>
   <v>      -0.00077691       0.00466212       0.00004090 </v>
   <v>       0.00049671       0.00373100       0.00010731 </v>
   <v>       0.00020905       0.00441524      -0.00017275 </v>
   <v>       0.00059791       0.00519598      -0.00000915 </v>
   <v>       0.00008893       0.00435035       0.00037017 </v>
   <v>       0.00033081       0.00514308       0.00003307 </v>
   <v>       0.05236083      -0.00312722      -0.12113646 </v>
   <v>      -0.05172949      -0.00323152       0.12081581 </v>
   <v>       0.05173495      -0.00288800      -0.12225335 </v>
   <v>      -0.05198943      -0.00283113       0.12254103 </v>
   <v>       0.05120483      -0.00156113      -0.12063503 </v>
   <v>      -0.05307615      -0.00181471       0.12239355 </v>
   <v>       0.05261967      -0.00243370      -0.12182184 </v>
   <v>      -0.05193387      -0.00238749       0.12085378 </v>
   <v>       0.05313935      -0.00151643      -0.12214057 </v>
   <v>      -0.05193347      -0.00132676       0.12105364 </v>
   <v>       0.05122205      -0.00101841      -0.12184001 </v>
   <v>      -0.05109146      -0.00110878       0.12181879 </v>
   <v>       0.05196861      -0.00257410      -0.12144116 </v>
   <v>      -0.05128448      -0.00248844       0.12077822 </v>
   <v>       0.05136847      -0.00248864      -0.12134301 </v>
   <v>      -0.05207133      -0.00235986       0.12168475 </v>
   <v>       0.05234172      -0.00186700      -0.12024442 </v>
   <v>      -0.05278829      -0.00194357       0.12092318 </v>
  </varray>
  <varray name="stress" >
   <v>     -20.21198759      -0.00001288      -0.75843593 </v>
   <v>      -0.00001291     -21.41403199      -0.00000409 </v>
   <v>      -0.75843602      -0.00000421       0.59456381 </v>
  </varray>
  <energy>
   <i name="e_fr_energy">   -169.76291835 </i>
   <i name="e_wo_entrp">   -169.46222132 </i>
   <i name="e_0_energy">     -0.60139406 </i>
  </energy>
  <time name="totalsc">  890.43  893.24</time>
 </calculation>
 <calculation>
  <scstep>
   <time name="dav">   29.91   29.98</time>
   <time name="total">   30.58   30.65</time>
   <energy>
    <i name="alphaZ">     75.13495585 </i>
    <i name="ewald">  50101.24944943 </i>
    <i name="hartreedc"> -56782.33110663 </i>
    <i name="XCdc">     59.31116678 </i>
    <i name="pawpsdc">   4268.01775766 </i>
    <i name="pawaedc">  -4031.57613819 </i>
    <i name="eentropy">     -0.34337322 </i>
    <i name="bandstr">  -1343.34767640 </i>
    <i name="atom">   7475.22437441 </i>
    <i name="e_fr_energy">   -178.66059030 </i>
    <i name="e_wo_entrp">   -178.31721708 </i>
    <i name="e_0_energy">   -178.48890369 </i>
   </energy>
  </scstep>
  <scstep>
   <time name="dav">   32.52   32.60</time>
   <time name="total">   33.19   33.27</time>
   <energy>
    <i name="e_fr_energy">   -173.32811969 </i>
    <i name="e_wo_entrp">   -172.99225380 </i>
    <i name="e_0_energy">   -173.16018674 </i>
   </energy>
  </scstep>
  <scstep>
   <time name="dav">   30.69   30.76</time>
   <time name="total">   31.35   31.43</time>
   <energy>
    <i name="e_fr_energy">   -171.70288986 </i>
    <i name="e_wo_entrp">   -171.36944609 </i>
    <i name="e_0_energy">   -171.53616797 </i>
   </energy>
  </scstep>
  <scstep>
   <time name="dav">   34.52   34.60</time>
   <time name="total">   35.18   35.27</time>
   <energy>
    <i name="e_fr_energy">   -171.74990537 </i>
    <i name="e_wo_entrp">   -171.39916701 </i>
    <i name="e_0_energy">   -171.57453619 </i>
   </energy>
  </scstep>
  <scstep>
   <time name="dav">   38.71   38.80</time>
   <time name="total">   39.37   39.47</time>
   <energy>
    <i name="e_fr_energy">   -171.70033114 </i>
    <i name="e_wo_entrp">   -171.34815086 </i>
    <i name="e_0_energy">   -171.52424100 </i>
   </energy>
  </scstep>
  <scstep>
   <time name="dav">   37.72   37.81</time>
   <time name="total">   38.38   38.48</time>
   <energy>
    <i name="e_fr_energy">   -171.63202670 </i>
    <i name="e_wo_entrp">   -171.29131038 </i>
    <i name="e_0_energy">   -171.46166854 </i>
   </energy>
  </scstep>
  <scstep>
   <time name="dav">   36.86   36.94</time>
   <time name="total">   37.52   37.62</time>
   <energy>
    <i name="e_fr_energy">   -171.67531610 </i>
    <i name="e_wo_entrp">   -171.33207758 </i>
    <i name="e_0_energy">   -171.50369684 </i>
   </energy>
  </scstep>
  <scstep>
   <time name="dav">   35.20   35.28</time>
   <time name="total">   35.86   35.96</time>
   <energy>
    <i name="e_fr_energy">   -171.62352876 </i>
    <i name="e_wo_entrp">   -171.28171572 </i>
    <i name="e_0_energy">   -171.45262224 </i>
   </energy>
  </scstep>
  <scstep>
   <time name="dav">   35.07   35.16</time>
   <time name="total">   35.74   35.83</time>
   <energy>
    <i name="e_fr_energy">   -171.62475316 </i>
    <i name="e_wo_entrp">   -171.28287185 </i>
    <i name="e_0_energy">   -171.45381250 </i>
   </energy>
  </scstep>
  <scstep>
   <time name="dav">   38.56   38.65</time>
   <time name="total">   39.22   39.32</time>
   <energy>
    <i name="e_fr_energy">   -171.62298411 </i>
    <i name="e_wo_entrp">   -171.28116707 </i>
    <i name="e_0_energy">   -171.45207559 </i>
   </energy>
  </scstep>
  <scstep>
   <time name="dav">   37.32   37.41</time>
   <time name="total">   37.99   38.08</time>
   <energy>
    <i name="e_fr_energy">   -171.62383418 </i>
    <i name="e_wo_entrp">   -171.28184468 </i>
    <i name="e_0_energy">   -171.45283943 </i>
   </energy>
  </scstep>
  <scstep>
   <time name="dav">   35.72   35.80</time>
   <time name="total">   36.38   36.48</time>
   <energy>
    <i name="e_fr_energy">   -171.62296137 </i>
    <i name="e_wo_entrp">   -171.28087084 </i>
    <i name="e_0_energy">   -171.45191611 </i>
   </energy>
  </scstep>
  <scstep>
   <time name="dav">   20.08   20.12</time>
   <time name="total">   20.74   20.80</time>
   <energy>
    <i name="e_fr_energy">   -171.62318080 </i>
    <i name="e_wo_entrp">   -171.28108231 </i>
    <i name="e_0_energy">   -171.45213155 </i>
   </energy>
  </scstep>
  <scstep>
   <time name="dav">   23.56   23.62</time>
   <time name="total">   23.60   23.66</time>
   <energy>
    <i name="alphaZ">     75.13495585 </i>
    <i name="ewald">  50101.24944943 </i>
    <i name="hartreedc"> -56690.01428482 </i>
    <i name="XCdc">     52.63753287 </i>
    <i name="pawpsdc">   4566.17093432 </i>
    <i name="pawaedc">  -4333.77720757 </i>
    <i name="eentropy">     -0.34209654 </i>
    <i name="bandstr">  -1417.90677784 </i>
    <i name="atom">   7475.22437441 </i>
    <i name="e_fr_energy">   -171.62311988 </i>
    <i name="e_wo_entrp">   -171.28102334 </i>
    <i name="e_0_energy">   -171.45207161 </i>
   </energy>
  </scstep>
  <structure>
   <crystal>
    <varray name="basis" >
     <v>       8.15762724       4.72443612       0.00000000 </v>
     <v>      -8.15762749       4.72443700       0.00000000 </v>
     <v>       0.00000000       0.00000000      30.00000000 </v>
    </varray>
    <i name="volume">   2312.41157765 </i>
    <varray name="rec_basis" >
     <v>       0.06129234       0.10583273       0.00000000 </v>
     <v>      -0.06129233       0.10583272       0.00000000 </v>
     <v>       0.00000000       0.00000000       0.03333333 </v>
    </varray>
   </crystal>
   <varray name="positions" >
    <v>       0.00001902       0.00002106      -0.00000032 </v>
    <v>       1.00001669       0.33334758      -0.00000011 </v>
    <v>       0.00001637       0.66668908      -0.00000017 </v>
    <v>       0.33335349       0.00002447       0.00000007 </v>
    <v>       0.33335258       0.33334982       0.00000017 </v>
    <v>       0.33335506       0.66668724      -0.00000028 </v>
    <v>       0.66669322       0.00002320      -0.00000001 </v>
    <v>       0.66668775       0.33335392       0.00000060 </v>
    <v>       0.66669222       0.66669038       0.00000005 </v>
    <v>       0.11081582       0.22228917       0.95520519 </v>
    <v>       0.22229042       0.11081356       0.04479428 </v>
    <v>       0.11081522       0.55562540       0.95520340 </v>
    <v>       0.22229162       0.44414955       0.04479706 </v>
    <v>       0.11082010       0.88896653       0.95520600 </v>
    <v>       0.22229346       0.77749078       0.04479682 </v>
    <v>       0.44415320       0.22229177       0.95520409 </v>
    <v>       0.55562724       0.11081817       0.04479434 </v>
    <v>       0.44415904       0.55562805       0.95520358 </v>
    <v>       0.55563232       0.44415659       0.04479466 </v>
    <v>       0.44415609       0.88896908       0.95520406 </v>
    <v>       0.55563570       0.77748863       0.04479589 </v>
    <v>       0.77748406       0.22229290       0.95520470 </v>
    <v>       0.88896187       0.11081588       0.04479422 </v>
    <v>       0.77748280       0.55562833       0.95520486 </v>
    <v>       0.88896030       0.44415203       0.04479568 </v>
    <v>       0.77748848       0.88896191       0.95520663 </v>
    <v>       0.88896030       0.77748936       0.04479445 </v>
   </varray>
  </structure>
  <varray name="forces" >
   <v>       0.00019975      -0.00292327      -0.00031667 </v>
   <v>      -0.00018774      -0.00331490       0.00004603 </v>
   <v>       0.00001486      -0.00336660       0.00004185 </v>
   <v>      -0.00014293      -0.00238618       0.00007931 </v>
   <v>       0.00078908      -0.00299155      -0.00001028 </v>
   <v>       0.00001252      -0.00288630       0.00015569 </v>
   <v>      -0.00066700      -0.00314176      -0.00002979 </v>
   <v>      -0.00015215      -0.00374857       0.00012686 </v>
   <v>       0.00027262      -0.00373315      -0.00016114 </v>
   <v>       0.04353853       0.00363463      -1.46947618 </v>
   <v>      -0.04308029       0.00363384       1.46895362 </v>
   <v>       0.04213230       0.00148986      -1.46864068 </v>
   <v>      -0.04128621       0.00152999       1.46810691 </v>
   <v>       0.04433579       0.00175028      -1.47008858 </v>
   <v>      -0.04335374       0.00133827       1.46807589 </v>
   <v>       0.04178302       0.00115729      -1.46783974 </v>
   <v>      -0.04214268       0.00133566       1.46820212 </v>
   <v>       0.04396418       0.00020630      -1.46761003 </v>
   <v>      -0.04388658       0.00062942       1.46790947 </v>
   <v>       0.04246977       0.00241648      -1.46829019 </v>
   <v>      -0.04298355       0.00220877       1.46867227 </v>
   <v>       0.04304929       0.00082329      -1.46915336 </v>
   <v>      -0.04412035       0.00080308       1.47062419 </v>
   <v>       0.04331776       0.00189482      -1.46905037 </v>
   <v>      -0.04334041       0.00214161       1.46898041 </v>
   <v>       0.04168183       0.00092871      -1.46966539 </v>
   <v>      -0.04221768       0.00056998       1.47035778 </v>
  </varray>
  <varray name="stress" >
   <v>       5.64797555      -0.00001986      -0.72039565 </v>
   <v>      -0.00001981       4.52514078       0.00011588 </v>
   <v>      -0.72039582       0.00011577      23.88079862 </v>
  </varray>
  <energy>
   <i name="e_fr_energy">   -171.62311988 </i>
   <i name="e_wo_entrp">   -171.45207161 </i>
   <i name="e_0_energy">     -0.34209654 </i>
  </energy>
  <time name="totalsc">  520.72  522.04</time>
 </calculation>
 <calculation>
  <scstep>
   <time name="dav">   27.51   27.57</time>
   <time name="total">   28.18   28.24</time>
   <energy>
    <i name="alphaZ">     73.65628710 </i>
    <i name="ewald">  48426.17142763 </i>
    <i name="hartreedc"> -55020.18939028 </i>
    <i name="XCdc">     48.01021919 </i>
    <i name="pawpsdc">   4565.66411337 </i>
    <i name="pawaedc">  -4333.24229085 </i>
    <i name="eentropy">     -0.37710743 </i>
    <i name="bandstr">  -1406.94364394 </i>
    <i name="atom">   7475.22437441 </i>
    <i name="e_fr_energy">   -172.02601081 </i>
    <i name="e_wo_entrp">   -171.64890338 </i>
    <i name="e_0_energy">   -171.83745710 </i>
   </energy>
  </scstep>
  <scstep>
   <time name="dav">   38.03   38.13</time>
   <time name="total">   38.70   38.79</time>
   <energy>
    <i name="e_fr_energy">   -172.63804234 </i>
    <i name="e_wo_entrp">   -172.25874698 </i>
    <i name="e_0_energy">   -172.44839466 </i>
   </energy>
  </scstep>
  <scstep>
   <time name="dav">   39.12   39.22</time>
   <time name="total">   39.79   39.89</time>
   <energy>
    <i name="e_fr_energy">   -172.53002511 </i>
    <i name="e_wo_entrp">   -172.16233139 </i>
    <i name="e_0_energy">   -172.34617825 </i>
   </energy>
  </scstep>
  <scstep>
   <time name="dav">   37.42   37.51</time>
   <time name="total">   38.08   38.18</time>
   <energy>
    <i name="e_fr_energy">   -172.68256348 </i>
    <i name="e_wo_entrp">   -172.30459016 </i>
    <i name="e_0_energy">   -172.49357682 </i>
   </energy>
  </scstep>
  <scstep>
   <time name="dav">   35.72   35.80</time>
   <time name="total">   36.39   36.59</time>
   <energy>
    <i name="e_fr_energy">   -172.49659574 </i>
    <i name="e_wo_entrp">   -172.12439402 </i>
    <i name="e_0_energy">   -172.31049488 </i>
   </energy>
  </scstep>
  <scstep>
   <time name="dav">   35.44   35.52</time>
   <time name="total">   36.10   36.19</time>
   <energy>
    <i name="e_fr_energy">   -172.55199070 </i>
    <i name="e_wo_entrp">   -172.18118849 </i>
    <i name="e_0_energy">   -172.36658959 </i>
   </energy>
  </scstep>
  <scstep>
   <time name="dav">   35.44   35.53</time>
   <time name="total">   36.11   36.20</time>
   <energy>
    <i name="e_fr_energy">   -172.45815300 </i>
    <i name="e_wo_entrp">   -172.09120850 </i>
    <i name="e_0_energy">   -172.27468075 </i>
   </energy>
  </scstep>
  <scstep>
   <time name="dav">   35.30   35.38</time>
   <time name="total">   35.96   36.05</time>
   <energy>
    <i name="e_fr_energy">   -172.46063530 </i>
    <i name="e_wo_entrp">   -172.09355758 </i>
    <i name="e_0_energy">   -172.27709644 </i>
   </energy>
  </scstep>
  <scstep>
   <time name="dav">   37.24   37.33</time>
   <time name="total">   37.90   38.00</time>
   <energy>
    <i name="e_fr_energy">   -172.45795933 </i>
    <i name="e_wo_entrp">   -172.09082556 </i>
    <i name="e_0_energy">   -172.27439245 </i>
   </energy>
  </scstep>
  <scstep>
   <time name="dav">   38.71   38.81</time>
   <time name="total">   39.38   39.48</time>
   <energy>
    <i name="e_fr_energy">   -172.45916036 </i>
    <i name="e_wo_entrp">   -172.09186143 </i>
    <i name="e_0_energy">   -172.27551090 </i>
   </energy>
  </scstep>
  <scstep>
   <time name="dav">   33.59   33.68</time>
   <time name="total">   34.26   34.35</time>
   <energy>
    <i name="e_fr_energy">   -172.45792232 </i>
    <i name="e_wo_entrp">   -172.09060326 </i>
    <i name="e_0_energy">   -172.27426279 </i>
   </energy>
  </scstep>
  <scstep>
   <time name="dav">   20.58   20.63</time>
   <time name="total">   21.25   21.31</time>
   <energy>
    <i name="e_fr_energy">   -172.45818569 </i>
    <i name="e_wo_entrp">   -172.09085618 </i>
    <i name="e_0_energy">   -172.27452093 </i>
   </energy>
  </scstep>
  <scstep>
   <time name="dav">   21.39   21.44</time>
   <time name="total">   21.43   21.48</time>
   <energy>
    <i name="alphaZ">     73.65628710 </i>
    <i name="ewald">  48426.17142763 </i>
    <i name="hartreedc"> -55032.29149124 </i>
    <i name="XCdc">     49.05935636 </i>
    <i name="pawpsdc">   4411.52482061 </i>
    <i name="pawaedc">  -4176.60308463 </i>
    <i name="eentropy">     -0.36733069 </i>
    <i name="bandstr">  -1398.83245437 </i>
    <i name="atom">   7475.22437441 </i>
    <i name="e_fr_energy">   -172.45809482 </i>
    <i name="e_wo_entrp">   -172.09076413 </i>
    <i name="e_0_energy">   -172.27442947 </i>
   </energy>
  </scstep>
  <structure>
   <crystal>
    <varray name="basis" >
     <v>       8.24810161       4.76641672       0.00000000 </v>
     <v>      -8.24810223       4.76641824       0.00000000 </v>
     <v>       0.00000000       0.00000000      30.00000000 </v>
    </varray>
    <i name="volume">   2358.83382971 </i>
    <varray name="rec_basis" >
     <v>       0.06062002       0.10490059       0.00000000 </v>
     <v>      -0.06062000       0.10490058       0.00000000 </v>
     <v>       0.00000000       0.00000000       0.03333333 </v>
    </varray>
   </crystal>
   <varray name="positions" >
    <v>       0.00000811       0.00000925      -0.00000071 </v>
    <v>       1.00000338       0.33333512      -0.00000006 </v>
    <v>       0.00000332       0.66667596      -0.00000012 </v>
    <v>       0.33334390       0.00001552       0.00000016 </v>
    <v>       0.33334273       0.33333641       0.00000016 </v>
    <v>       0.33334386       0.66667599      -0.00000009 </v>
    <v>       0.66667950       0.00001249      -0.00000005 </v>
    <v>       0.66667284       0.33333969       0.00000075 </v>
    <v>       0.66667832       0.66667525      -0.00000014 </v>
    <v>       0.11092798       0.22220527       0.95340582 </v>
    <v>       0.22220755       0.11092469       0.04659301 </v>
    <v>       0.11091588       0.55553632       0.95340505 </v>
    <v>       0.22220461       0.44424845       0.04659475 </v>
    <v>       0.11092673       0.88887351       0.95340588 </v>
    <v>       0.22220105       0.77759359       0.04659447 </v>
    <v>       0.44425178       0.22220219       0.95340672 </v>
    <v>       0.55553754       0.11091825       0.04659215 </v>
    <v>       0.44425883       0.55552987       0.95340649 </v>
    <v>       0.55553595       0.44425785       0.04659211 </v>
    <v>       0.44426111       0.88888286       0.95340614 </v>
    <v>       0.55554751       0.77759400       0.04659428 </v>
    <v>       0.77758419       0.22219918       0.95340573 </v>
    <v>       0.88886566       0.11091834       0.04659500 </v>
    <v>       0.77758770       0.55553816       0.95340601 </v>
    <v>       0.88887104       0.44425794       0.04659444 </v>
    <v>       0.77758594       0.88887167       0.95340703 </v>
    <v>       0.88886746       0.77758663       0.04659490 </v>
   </varray>
  </structure>
  <varray name="forces" >
   <v>       0.00054672      -0.00237221       0.00012863 </v>
   <v>      -0.00001015      -0.00185376       0.00026487 </v>
   <v>      -0.00053034      -0.00070837      -0.00006702 </v>
   <v>      -0.00000193      -0.00287768      -0.00002849 </v>
   <v>      -0.00001828      -0.00233340      -0.00010458 </v>
   <v>      -0.00081353      -0.00140218      -0.00002982 </v>
   <v>       0.00030227      -0.00193729       0.00020553 </v>
   <v>       0.00028480      -0.00160927      -0.00009095 </v>
   <v>       0.00009462      -0.00050270      -0.00019262 </v>
   <v>       0.01406262      -0.00119372      -0.37122054 </v>
   <v>      -0.01347269      -0.00139137       0.37138087 </v>
   <v>       0.01322097       0.00220220      -0.37032679 </v>
   <v>      -0.01542002       0.00168482       0.37156476 </v>
   <v>       0.01243356       0.00051994      -0.36993073 </v>
   <v>      -0.01237150       0.00054835       0.36994103 </v>
   <v>       0.01461638       0.00077887      -0.37286240 </v>
   <v>      -0.01375483       0.00071047       0.37272982 </v>
   <v>       0.01169754       0.00189237      -0.37165455 </v>
   <v>      -0.01259377       0.00159872       0.37292262 </v>
   <v>       0.01351671      -0.00092020      -0.37090804 </v>
   <v>      -0.01428003      -0.00059759       0.37124863 </v>
   <v>       0.01273539       0.00121962      -0.37257654 </v>
   <v>      -0.01191215       0.00154335       0.37136538 </v>
   <v>       0.01325315       0.00144957      -0.37224570 </v>
   <v>      -0.01313295       0.00135547       0.37198133 </v>
   <v>       0.01502530       0.00178931      -0.37124639 </v>
   <v>      -0.01347785       0.00240668       0.36975167 </v>
  </varray>
  <varray name="stress" >
   <v>      -7.59647858      -0.00003750      -0.23087495 </v>
   <v>      -0.00003758      -7.90172113       0.00007442 </v>
   <v>      -0.23087488       0.00007433       5.46695210 </v>
  </varray>
  <energy>
   <i name="e_fr_energy">   -172.45809482 </i>
   <i name="e_wo_entrp">   -172.27442947 </i>
   <i name="e_0_energy">     -0.36733069 </i>
  </energy>
  <time name="totalsc">  488.99  490.36</time>
 </calculation>
 <calculation>
  <scstep>
   <time name="dav">   32.37   32.44</time>
   <time name="total">   33.03   33.11</time>
   <energy>
    <i name="alphaZ">     75.25597971 </i>
    <i name="ewald">  49400.39106810 </i>
    <i name="hartreedc"> -56031.10128374 </i>
    <i name="XCdc">     50.87308276 </i>
    <i name="pawpsdc">   4410.70740746 </i>
    <i name="pawaedc">  -4175.77644117 </i>
    <i name="eentropy">     -0.35059058 </i>
    <i name="bandstr">  -1378.18286950 </i>
    <i name="atom">   7475.22437441 </i>
    <i name="e_fr_energy">   -172.95927255 </i>
    <i name="e_wo_entrp">   -172.60868197 </i>
    <i name="e_0_energy">   -172.78397726 </i>
   </energy>
  </scstep>
  <scstep>
   <time name="dav">   38.74   38.84</time>
   <time name="total">   39.41   39.51</time>
   <energy>
    <i name="e_fr_energy">   -172.83001468 </i>
    <i name="e_wo_entrp">   -172.48180832 </i>
    <i name="e_0_energy">   -172.65591150 </i>
   </energy>
  </scstep>
  <scstep>
   <time name="dav">   38.06   38.15</time>
   <time name="total">   38.72   38.82</time>
   <energy>
    <i name="e_fr_energy">   -172.86320018 </i>
    <i name="e_wo_entrp">   -172.51578150 </i>
    <i name="e_0_energy">   -172.68949084 </i>
   </energy>
  </scstep>
  <scstep>
   <time name="dav">   36.89   36.98</time>
   <time name="total">   37.56   37.66</time>
   <energy>
    <i name="e_fr_energy">   -172.84081268 </i>
    <i name="e_wo_entrp">   -172.49114260 </i>
    <i name="e_0_energy">   -172.66597764 </i>
   </energy>
  </scstep>
  <scstep>
   <time name="dav">   37.58   37.67</time>
   <time name="total">   38.24   38.34</time>
   <energy>
    <i name="e_fr_energy">   -172.77496404 </i>
    <i name="e_wo_entrp">   -172.42718510 </i>
    <i name="e_0_energy">   -172.60107457 </i>
   </energy>
  </scstep>
  <scstep>
   <time name="dav">   37.39   37.48</time>
   <time name="total">   38.05   38.15</time>
   <energy>
    <i name="e_fr_energy">   -172.78589741 </i>
    <i name="e_wo_entrp">   -172.43810448 </i>
    <i name="e_0_energy">   -172.61200095 </i>
   </energy>
  </scstep>
  <scstep>
   <time name="dav">   35.33   35.41</time>
   <time name="total">   35.99   36.08</time>
   <energy>
    <i name="e_fr_energy">   -172.77262285 </i>
    <i name="e_wo_entrp">   -172.42509381 </i>
    <i name="e_0_energy">   -172.59885833 </i>
   </energy>
  </scstep>
  <scstep>
   <time name="dav">   31.68   31.76</time>
   <time name="total">   32.35   32.43</time>
   <energy>
    <i name="e_fr_energy">   -172.77418075 </i>
    <i name="e_wo_entrp">   -172.42654314 </i>
    <i name="e_0_energy">   -172.60036195 </i>
   </energy>
  </scstep>
  <scstep>
   <time name="dav">   26.06   26.13</time>
   <time name="total">   26.73   26.79</time>
   <energy>
    <i name="e_fr_energy">   -172.77307897 </i>
    <i name="e_wo_entrp">   -172.42542117 </i>
    <i name="e_0_energy">   -172.59925007 </i>
   </energy>
  </scstep>
  <scstep>
   <time name="dav">   20.13   20.18</time>
   <time name="total">   20.79   20.85</time>
   <energy>
    <i name="e_fr_energy">   -172.77333300 </i>
    <i name="e_wo_entrp">   -172.42572402 </i>
    <i name="e_0_energy">   -172.59952851 </i>
   </energy>
  </scstep>
  <scstep>
   <time name="dav">   22.84   22.89</time>
   <time name="total">   22.88   22.94</time>
   <energy>
    <i name="alphaZ">     75.25597971 </i>
    <i name="ewald">  49400.39106810 </i>
    <i name="hartreedc"> -56013.80858614 </i>
    <i name="XCdc">     49.79884978 </i>
    <i name="pawpsdc">   4431.12195316 </i>
    <i name="pawaedc">  -4196.36176469 </i>
    <i name="eentropy">     -0.34760339 </i>
    <i name="bandstr">  -1394.04750506 </i>
    <i name="atom">   7475.22437441 </i>
    <i name="e_fr_energy">   -172.77323411 </i>
    <i name="e_wo_entrp">   -172.42563072 </i>
    <i name="e_0_energy">   -172.59943241 </i>
   </energy>
  </scstep>
  <structure>
   <crystal>
    <varray name="basis" >
     <v>       8.16306448       4.71369556       0.00000000 </v>
     <v>      -8.16306570       4.71369810       0.00000000 </v>
     <v>       0.00000000       0.00000000      30.00000000 </v>
    </varray>
    <i name="volume">   2308.69284350 </i>
    <varray name="rec_basis" >
     <v>       0.06125152       0.10607386       0.00000000 </v>
     <v>      -0.06125149       0.10607385       0.00000000 </v>
     <v>       0.00000000       0.00000000       0.03333333 </v>
    </varray>
   </crystal>
   <varray name="positions" >
    <v>       0.00000059      -0.00000027      -0.00000064 </v>
    <v>       0.99999614       0.33332802       0.00000020 </v>
    <v>      -0.00000139       0.66667307      -0.00000018 </v>
    <v>       0.33333410       0.00000582       0.00000015 </v>
    <v>       0.33333449       0.33332778       0.00000006 </v>
    <v>       0.33333685       0.66667176      -0.00000009 </v>
    <v>       0.66667249       0.00000483       0.00000014 </v>
    <v>       0.66666662       0.33333258       0.00000068 </v>
    <v>       0.66667519       0.66667164      -0.00000035 </v>
    <v>       0.11096309       0.22216673       0.95282261 </v>
    <v>       0.22216957       0.11095806       0.04717629 </v>
    <v>       0.11095814       0.55550865       0.95282282 </v>
    <v>       0.22217188       0.44429272       0.04717807 </v>
    <v>       0.11096341       0.88884168       0.95282379 </v>
    <v>       0.22216948       0.77762976       0.04717625 </v>
    <v>       0.44429194       0.22216782       0.95282222 </v>
    <v>       0.55550444       0.11095692       0.04717658 </v>
    <v>       0.44429744       0.55550270       0.95282317 </v>
    <v>       0.55550661       0.44429732       0.04717668 </v>
    <v>       0.44429516       0.88884576       0.95282342 </v>
    <v>       0.55550981       0.77763037       0.04717739 </v>
    <v>       0.77762263       0.22216881       0.95282129 </v>
    <v>       0.88883734       0.11095663       0.04717852 </v>
    <v>       0.77762833       0.55550805       0.95282190 </v>
    <v>       0.88884098       0.44429821       0.04717829 </v>
    <v>       0.77762966       0.88883952       0.95282376 </v>
    <v>       0.88883946       0.77762950       0.04717687 </v>
   </varray>
  </structure>
  <varray name="forces" >
   <v>      -0.00024972      -0.00233595      -0.00011667 </v>
   <v>      -0.00037574      -0.00406212       0.00029992 </v>
   <v>      -0.00004776      -0.00304836      -0.00018060 </v>
   <v>      -0.00014641      -0.00170348      -0.00012707 </v>
   <v>       0.00105335      -0.00362168       0.00018824 </v>
   <v>      -0.00060305      -0.00249081       0.00012929 </v>
   <v>      -0.00115435      -0.00178452      -0.00000168 </v>
   <v>       0.00090075      -0.00364038       0.00002561 </v>
   <v>       0.00014776      -0.00256548      -0.00013233 </v>
   <v>       0.00724036       0.00146047      -0.33765290 </v>
   <v>      -0.00699197       0.00207287       0.33787184 </v>
   <v>       0.00585233       0.00148666      -0.33731815 </v>
   <v>      -0.00553039       0.00203661       0.33682159 </v>
   <v>       0.00621487       0.00079881      -0.33764408 </v>
   <v>      -0.00656572       0.00125854       0.33735919 </v>
   <v>       0.00682855       0.00292026      -0.33605114 </v>
   <v>      -0.00677092       0.00270723       0.33553724 </v>
   <v>       0.00669591       0.00087520      -0.33674150 </v>
   <v>      -0.00496960       0.00048384       0.33659497 </v>
   <v>       0.00686625       0.00208438      -0.33664711 </v>
   <v>      -0.00707482       0.00187828       0.33667027 </v>
   <v>       0.00518455       0.00041146      -0.33573145 </v>
   <v>      -0.00635009       0.00044202       0.33667531 </v>
   <v>       0.00819013       0.00017645      -0.33637307 </v>
   <v>      -0.00792552       0.00013364       0.33552777 </v>
   <v>       0.00567597       0.00221679      -0.33720625 </v>
   <v>      -0.00609472       0.00180923       0.33822277 </v>
  </varray>
  <varray name="stress" >
   <v>      -5.13033682       0.00003499      -0.12051421 </v>
   <v>       0.00003500      -5.21699391       0.00008334 </v>
   <v>      -0.12051398       0.00008322       5.20671027 </v>
  </varray>
  <energy>
   <i name="e_fr_energy">   -172.77323411 </i>
   <i name="e_wo_entrp">   -172.59943241 </i>
   <i name="e_0_energy">     -0.34760339 </i>
  </energy>
  <time name="totalsc">  409.35  410.39</time>
 </calculation>
 <calculation>
  <scstep>
   <time name="dav">   30.54   30.61</time>
   <time name="total">   31.20   31.28</time>
   <energy>
    <i name="alphaZ">     78.35957357 </i>
    <i name="ewald">  51123.76537775 </i>
    <i name="hartreedc"> -57788.60559490 </i>
    <i name="XCdc">     52.63694658 </i>
    <i name="pawpsdc">   4431.35024422 </i>
    <i name="pawaedc">  -4196.59062954 </i>
    <i name="eentropy">     -0.33505416 </i>
    <i name="bandstr">  -1349.42755805 </i>
    <i name="atom">   7475.22437441 </i>
    <i name="e_fr_energy">   -173.62232012 </i>
    <i name="e_wo_entrp">   -173.28726597 </i>
    <i name="e_0_energy">   -173.45479305 </i>
   </energy>
  </scstep>
  <scstep>
   <time name="dav">   39.88   39.98</time>
   <time name="total">   40.55   40.65</time>
   <energy>
    <i name="e_fr_energy">   -173.39070330 </i>
    <i name="e_wo_entrp">   -173.05486775 </i>
    <i name="e_0_energy">   -173.22278553 </i>
   </energy>
  </scstep>
  <scstep>
   <time name="dav">   39.67   39.76</time>
   <time name="total">   40.33   40.43</time>
   <energy>
    <i name="e_fr_energy">   -173.52079975 </i>
    <i name="e_wo_entrp">   -173.20106597 </i>
    <i name="e_0_energy">   -173.36093286 </i>
   </energy>
  </scstep>
  <scstep>
   <time name="dav">   38.22   38.31</time>
   <time name="total">   38.88   38.98</time>
   <energy>
    <i name="e_fr_energy">   -173.43823852 </i>
    <i name="e_wo_entrp">   -173.10516881 </i>
    <i name="e_0_energy">   -173.27170367 </i>
   </energy>
  </scstep>
  <scstep>
   <time name="dav">   38.08   38.17</time>
   <time name="total">   38.75   38.85</time>
   <energy>
    <i name="e_fr_energy">   -173.16422119 </i>
    <i name="e_wo_entrp">   -172.83498781 </i>
    <i name="e_0_energy">   -172.99960450 </i>
   </energy>
  </scstep>
  <scstep>
   <time name="dav">   37.85   37.95</time>
   <time name="total">   38.51   38.61</time>
   <energy>
    <i name="e_fr_energy">   -173.28624384 </i>
    <i name="e_wo_entrp">   -172.95618117 </i>
    <i name="e_0_energy">   -173.12121250 </i>
   </energy>
  </scstep>
  <scstep>
   <time name="dav">   37.61   37.70</time>
   <time name="total">   38.27   38.37</time>
   <energy>
    <i name="e_fr_energy">   -173.14443208 </i>
    <i name="e_wo_entrp">   -172.81553166 </i>
    <i name="e_0_energy">   -172.97998187 </i>
   </energy>
  </scstep>
  <scstep>
   <time name="dav">   37.59   37.68</time>
   <time name="total">   38.25   38.35</time>
   <energy>
    <i name="e_fr_energy">   -173.14820561 </i>
    <i name="e_wo_entrp">   -172.81906634 </i>
    <i name="e_0_energy">   -172.98363598 </i>
   </energy>
  </scstep>
  <scstep>
   <time name="dav">   35.81   35.90</time>
   <time name="total">   36.47   36.57</time>
   <energy>
    <i name="e_fr_energy">   -173.14458625 </i>
    <i name="e_wo_entrp">   -172.81501130 </i>
    <i name="e_0_energy">   -172.97979878 </i>
   </energy>
  </scstep>
  <scstep>
   <time name="dav">   35.35   35.43</time>
   <time name="total">   36.01   36.10</time>
   <energy>
    <i name="e_fr_energy">   -173.14563770 </i>
    <i name="e_wo_entrp">   -172.81596819 </i>
    <i name="e_0_energy">   -172.98080295 </i>
   </energy>
  </scstep>
  <scstep>
   <time name="dav">   30.09   30.17</time>
   <time name="total">   30.76   30.84</time>
   <energy>
    <i name="e_fr_energy">   -173.14463974 </i>
    <i name="e_wo_entrp">   -172.81491655 </i>
    <i name="e_0_energy">   -172.97977815 </i>
   </energy>
  </scstep>
  <scstep>
   <time name="dav">   19.73   19.77</time>
   <time name="total">   20.39   20.44</time>
   <energy>
    <i name="e_fr_energy">   -173.14484887 </i>
    <i name="e_wo_entrp">   -172.81520997 </i>
    <i name="e_0_energy">   -172.98002942 </i>
   </energy>
  </scstep>
  <scstep>
   <time name="dav">   24.58   24.64</time>
   <time name="total">   24.62   24.69</time>
   <energy>
    <i name="alphaZ">     78.35957357 </i>
    <i name="ewald">  51123.76537775 </i>
    <i name="hartreedc"> -57756.03084785 </i>
    <i name="XCdc">     50.65890260 </i>
    <i name="pawpsdc">   4443.06233482 </i>
    <i name="pawaedc">  -4208.12506989 </i>
    <i name="eentropy">     -0.32963151 </i>
    <i name="bandstr">  -1379.72978931 </i>
    <i name="atom">   7475.22437441 </i>
    <i name="e_fr_energy">   -173.14477540 </i>
    <i name="e_wo_entrp">   -172.81514389 </i>
    <i name="e_0_energy">   -172.97995965 </i>
   </energy>
  </scstep>
  <structure>
   <crystal>
    <varray name="basis" >
     <v>       8.00195163       4.61815095       0.00000000 </v>
     <v>      -8.00194969       4.61814803       0.00000000 </v>
     <v>       0.00000000       0.00000000      30.00000000 </v>
    </varray>
    <i name="volume">   2217.25226244 </i>
    <varray name="rec_basis" >
     <v>       0.06248474       0.10826846       0.00000000 </v>
     <v>      -0.06248478       0.10826849       0.00000000 </v>
     <v>       0.00000000       0.00000000       0.03333333 </v>
    </varray>
   </crystal>
   <varray name="positions" >
    <v>      -0.00003074      -0.00002502      -0.00000144 </v>
    <v>       0.99993674       0.33327522       0.00000128 </v>
    <v>      -0.00004622       0.66662660      -0.00000092 </v>
    <v>       0.33331664      -0.00000899      -0.00000038 </v>
    <v>       0.33329665       0.33327092       0.00000107 </v>
    <v>       0.33329940       0.66664090       0.00000060 </v>
    <v>       0.66663974      -0.00000601      -0.00000014 </v>
    <v>       0.66662237       0.33327437       0.00000096 </v>
    <v>       0.66663674       0.66663079      -0.00000077 </v>
    <v>       0.11104686       0.22214274       0.95127380 </v>
    <v>       0.22215649       0.11105068       0.04872576 </v>
    <v>       0.11101602       0.55548025       0.95127469 </v>
    <v>       0.22216202       0.44435258       0.04872215 </v>
    <v>       0.11102415       0.88880387       0.95127321 </v>
    <v>       0.22213539       0.77769942       0.04872489 </v>
    <v>       0.44438140       0.22216107       0.95128345 </v>
    <v>       0.55549329       0.11104535       0.04871324 </v>
    <v>       0.44435799       0.55545350       0.95127972 </v>
    <v>       0.55547006       0.44433673       0.04871794 </v>
    <v>       0.44438340       0.88883133       0.95127926 </v>
    <v>       0.55549052       0.77771439       0.04872134 </v>
    <v>       0.77766372       0.22213183       0.95128325 </v>
    <v>       0.88878703       0.11100934       0.04872294 </v>
    <v>       0.77769076       0.55544297       0.95128048 </v>
    <v>       0.88877785       0.44435864       0.04871608 </v>
    <v>       0.77769358       0.88882897       0.95127701 </v>
    <v>       0.88881263       0.77769201       0.04873045 </v>
   </varray>
  </structure>
  <varray name="forces" >
   <v>       0.00128759      -0.00157537      -0.00057453 </v>
   <v>       0.00057879      -0.00156671      -0.00052754 </v>
   <v>      -0.00119347      -0.00256130       0.00048249 </v>
   <v>      -0.00221631      -0.00231254      -0.00011829 </v>
   <v>       0.00086727      -0.00245516       0.00001267 </v>
   <v>       0.00036983      -0.00312976       0.00068249 </v>
   <v>       0.00014472      -0.00182538      -0.00055390 </v>
   <v>      -0.00146330      -0.00193431      -0.00017205 </v>
   <v>       0.00206836      -0.00230154       0.00041955 </v>
   <v>      -0.00291835       0.00064784      -0.07566530 </v>
   <v>       0.00193573      -0.00083429       0.07678407 </v>
   <v>       0.00182731       0.00093700      -0.07653715 </v>
   <v>      -0.00115408      -0.00006781       0.07557615 </v>
   <v>      -0.00118571       0.00315095      -0.07597911 </v>
   <v>       0.00142983       0.00303316       0.07595612 </v>
   <v>      -0.00049409      -0.00095334      -0.07970109 </v>
   <v>      -0.00051434      -0.00102603       0.08190768 </v>
   <v>      -0.00231159       0.00214376      -0.07726566 </v>
   <v>      -0.00035150       0.00217583       0.07826331 </v>
   <v>      -0.00203143      -0.00165563      -0.07818940 </v>
   <v>       0.00200086      -0.00086561       0.07759888 </v>
   <v>       0.00005686       0.00408720      -0.08093852 </v>
   <v>       0.00185382       0.00426701       0.07945365 </v>
   <v>      -0.00327366       0.00148920      -0.07852226 </v>
   <v>       0.00394447       0.00150657       0.07962218 </v>
   <v>       0.00161011       0.00015357      -0.07771326 </v>
   <v>      -0.00086772       0.00147268       0.07569883 </v>
  </varray>
  <varray name="stress" >
   <v>      -1.62671071      -0.00000089       0.01897672 </v>
   <v>      -0.00000085      -1.48282130      -0.00021028 </v>
   <v>       0.01897665      -0.00021037       0.70830470 </v>
  </varray>
  <energy>
   <i name="e_fr_energy">   -173.14477540 </i>
   <i name="e_wo_entrp">   -172.97995965 </i>
   <i name="e_0_energy">     -0.32963151 </i>
  </energy>
  <time name="totalsc">  498.62  500.00</time>
 </calculation>
 <calculation>
  <scstep>
   <time name="dav">   31.19   31.27</time>
   <time name="total">   31.86   31.94</time>
   <energy>
    <i name="alphaZ">     79.63332591 </i>
    <i name="ewald">  51841.86425408 </i>
    <i name="hartreedc"> -58494.38122988 </i>
    <i name="XCdc">     51.85257305 </i>
    <i name="pawpsdc">   4442.93041576 </i>
    <i name="pawaedc">  -4207.98439399 </i>
    <i name="eentropy">     -0.31666341 </i>
    <i name="bandstr">  -1362.08118311 </i>
    <i name="atom">   7475.22437441 </i>
    <i name="e_fr_energy">   -173.25852717 </i>
    <i name="e_wo_entrp">   -172.94186376 </i>
    <i name="e_0_energy">   -173.10019546 </i>
   </energy>
  </scstep>
  <scstep>
   <time name="dav">   39.95   40.05</time>
   <time name="total">   40.62   40.72</time>
   <energy>
    <i name="e_fr_energy">   -173.21789153 </i>
    <i name="e_wo_entrp">   -172.89795119 </i>
    <i name="e_0_energy">   -173.05792136 </i>
   </energy>
  </scstep>
  <scstep>
   <time name="dav">   37.75   37.84</time>
   <time name="total">   38.41   38.51</time>
   <energy>
    <i name="e_fr_energy">   -173.23966837 </i>
    <i name="e_wo_entrp">   -172.93078347 </i>
    <i name="e_0_energy">   -173.08522592 </i>
   </energy>
  </scstep>
  <scstep>
   <time name="dav">   36.24   36.32</time>
   <time name="total">   36.90   37.00</time>
   <energy>
    <i name="e_fr_energy">   -173.25816821 </i>
    <i name="e_wo_entrp">   -172.94328220 </i>
    <i name="e_0_energy">   -173.10072521 </i>
   </energy>
  </scstep>
  <scstep>
   <time name="dav">   37.31   37.40</time>
   <time name="total">   37.97   38.07</time>
   <energy>
    <i name="e_fr_energy">   -173.17240172 </i>
    <i name="e_wo_entrp">   -172.85667726 </i>
    <i name="e_0_energy">   -173.01453949 </i>
   </energy>
  </scstep>
  <scstep>
   <time name="dav">   37.08   37.17</time>
   <time name="total">   37.74   37.84</time>
   <energy>
    <i name="e_fr_energy">   -173.19080157 </i>
    <i name="e_wo_entrp">   -172.87501700 </i>
    <i name="e_0_energy">   -173.03290929 </i>
   </energy>
  </scstep>
  <scstep>
   <time name="dav">   35.00   35.09</time>
   <time name="total">   35.66   35.76</time>
   <energy>
    <i name="e_fr_energy">   -173.17092695 </i>
    <i name="e_wo_entrp">   -172.85532321 </i>
    <i name="e_0_energy">   -173.01312508 </i>
   </energy>
  </scstep>
  <scstep>
   <time name="dav">   34.22   34.30</time>
   <time name="total">   34.88   34.97</time>
   <energy>
    <i name="e_fr_energy">   -173.17200867 </i>
    <i name="e_wo_entrp">   -172.85636640 </i>
    <i name="e_0_energy">   -173.01418753 </i>
   </energy>
  </scstep>
  <scstep>
   <time name="dav">   25.43   25.49</time>
   <time name="total">   26.09   26.16</time>
   <energy>
    <i name="e_fr_energy">   -173.17146498 </i>
    <i name="e_wo_entrp">   -172.85579542 </i>
    <i name="e_0_energy">   -173.01363020 </i>
   </energy>
  </scstep>
  <scstep>
   <time name="dav">   19.33   19.38</time>
   <time name="total">   20.00   20.05</time>
   <energy>
    <i name="e_fr_energy">   -173.17156659 </i>
    <i name="e_wo_entrp">   -172.85584616 </i>
    <i name="e_0_energy">   -173.01370637 </i>
   </energy>
  </scstep>
  <scstep>
   <time name="dav">   24.04   24.10</time>
   <time name="total">   24.08   24.14</time>
   <energy>
    <i name="alphaZ">     79.63332591 </i>
    <i name="ewald">  51841.86425408 </i>
    <i name="hartreedc"> -58482.27144770 </i>
    <i name="XCdc">     51.07264563 </i>
    <i name="pawpsdc">   4448.86765545 </i>
    <i name="pawaedc">  -4213.86570384 </i>
    <i name="eentropy">     -0.31572038 </i>
    <i name="bandstr">  -1373.38096774 </i>
    <i name="atom">   7475.22437441 </i>
    <i name="e_fr_energy">   -173.17158417 </i>
    <i name="e_wo_entrp">   -172.85586380 </i>
    <i name="e_0_energy">   -173.01372399 </i>
   </energy>
  </scstep>
  <structure>
   <crystal>
    <varray name="basis" >
     <v>       7.93621812       4.58192267       0.00000000 </v>
     <v>      -7.93621533       4.58191826       0.00000000 </v>
     <v>       0.00000000       0.00000000      30.00000000 </v>
    </varray>
    <i name="volume">   2181.78683105 </i>
    <varray name="rec_basis" >
     <v>       0.06300228       0.10912453       0.00000000 </v>
     <v>      -0.06300234       0.10912457       0.00000000 </v>
     <v>       0.00000000       0.00000000       0.03333333 </v>
    </varray>
   </crystal>
   <varray name="positions" >
    <v>      -0.00004411      -0.00004720      -0.00000297 </v>
    <v>       0.99991305       0.33324840       0.00000033 </v>
    <v>      -0.00008128       0.66660081      -0.00000002 </v>
    <v>       0.33328725      -0.00001906      -0.00000078 </v>
    <v>       0.33327364       0.33323561       0.00000137 </v>
    <v>       0.33326919       0.66660877       0.00000231 </v>
    <v>       0.66661914      -0.00002190      -0.00000149 </v>
    <v>       0.66659107       0.33325195       0.00000066 </v>
    <v>       0.66661857       0.66659466       0.00000008 </v>
    <v>       0.11106087       0.22215575       0.95070960 </v>
    <v>       0.22215736       0.11106057       0.04929258 </v>
    <v>       0.11104345       0.55547205       0.95070860 </v>
    <v>       0.22215514       0.44436992       0.04928482 </v>
    <v>       0.11105711       0.88882253       0.95070761 </v>
    <v>       0.22215515       0.77773268       0.04928985 </v>
    <v>       0.44439372       0.22215562       0.95071314 </v>
    <v>       0.55548170       0.11106146       0.04928798 </v>
    <v>       0.44437812       0.55546548       0.95071347 </v>
    <v>       0.55547486       0.44436277       0.04928566 </v>
    <v>       0.44438532       0.88882593       0.95071060 </v>
    <v>       0.55548949       0.77772070       0.04928858 </v>
    <v>       0.77770297       0.22215198       0.95071026 </v>
    <v>       0.88881258       0.11104503       0.04929451 </v>
    <v>       0.77770250       0.55545114       0.95071198 </v>
    <v>       0.88878951       0.44436729       0.04928615 </v>
    <v>       0.77771550       0.88882131       0.95070875 </v>
    <v>       0.88881260       0.77772020       0.04929624 </v>
   </varray>
  </structure>
  <varray name="forces" >
   <v>       0.00067272      -0.00055338       0.00015086 </v>
   <v>       0.00053362      -0.00093438       0.00005502 </v>
   <v>      -0.00167398      -0.00035533       0.00071926 </v>
   <v>      -0.00070613       0.00156105       0.00055261 </v>
   <v>       0.00203236       0.00096880      -0.00026823 </v>
   <v>       0.00146461       0.00111876      -0.00029871 </v>
   <v>      -0.00019942      -0.00158148      -0.00022076 </v>
   <v>      -0.00196860      -0.00224439       0.00037126 </v>
   <v>       0.00023506      -0.00147292      -0.00050431 </v>
   <v>       0.00024281       0.00052116       0.01429019 </v>
   <v>       0.00099707      -0.00017607      -0.01463026 </v>
   <v>      -0.00135973       0.00110223       0.01488973 </v>
   <v>       0.00123235       0.00107244      -0.01467253 </v>
   <v>      -0.00074159      -0.00057670       0.01541583 </v>
   <v>       0.00054141      -0.00006827      -0.01551395 </v>
   <v>      -0.00203285       0.00027868       0.01292432 </v>
   <v>       0.00130625      -0.00051851      -0.01283914 </v>
   <v>       0.00006881       0.00139862       0.01721195 </v>
   <v>      -0.00070874       0.00173805      -0.01549772 </v>
   <v>      -0.00008643      -0.00022390       0.01551548 </v>
   <v>       0.00202909       0.00044827      -0.01693076 </v>
   <v>      -0.00061769      -0.00021267       0.01249928 </v>
   <v>       0.00138367      -0.00105892      -0.01488753 </v>
   <v>      -0.00327521       0.00113385       0.01484346 </v>
   <v>      -0.00001095       0.00111117      -0.01308796 </v>
   <v>       0.00041724      -0.00162844       0.01753791 </v>
   <v>       0.00022429      -0.00084772      -0.01762532 </v>
  </varray>
  <varray name="stress" >
   <v>       0.16200294      -0.00003411       0.01650232 </v>
   <v>      -0.00003410       0.19316607      -0.00010019 </v>
   <v>       0.01650242      -0.00010010      -1.04426907 </v>
  </varray>
  <energy>
   <i name="e_fr_energy">   -173.17158417 </i>
   <i name="e_wo_entrp">   -173.01372399 </i>
   <i name="e_0_energy">     -0.31572038 </i>
  </energy>
  <time name="totalsc">  409.87  410.92</time>
 </calculation>
 <calculation>
  <scstep>
   <time name="dav">   31.24   31.32</time>
   <time name="total">   31.91   31.98</time>
   <energy>
    <i name="alphaZ">     79.50378808 </i>
    <i name="ewald">  51772.18945430 </i>
    <i name="hartreedc"> -58410.73338012 </i>
    <i name="XCdc">     50.96480062 </i>
    <i name="pawpsdc">   4449.23407134 </i>
    <i name="pawaedc">  -4214.23952394 </i>
    <i name="eentropy">     -0.31718534 </i>
    <i name="bandstr">  -1374.99914765 </i>
    <i name="atom">   7475.22437441 </i>
    <i name="e_fr_energy">   -173.17274829 </i>
    <i name="e_wo_entrp">   -172.85556296 </i>
    <i name="e_0_energy">   -173.01415563 </i>
   </energy>
  </scstep>
  <scstep>
   <time name="dav">   38.64   38.73</time>
   <time name="total">   39.30   39.40</time>
   <energy>
    <i name="e_fr_energy">   -173.17271690 </i>
    <i name="e_wo_entrp">   -172.85592346 </i>
    <i name="e_0_energy">   -173.01432018 </i>
   </energy>
  </scstep>
  <scstep>
   <time name="dav">   36.10   36.19</time>
   <time name="total">   36.77   36.86</time>
   <energy>
    <i name="e_fr_energy">   -173.17449628 </i>
    <i name="e_wo_entrp">   -172.85673814 </i>
    <i name="e_0_energy">   -173.01561721 </i>
   </energy>
  </scstep>
  <scstep>
   <time name="dav">   35.74   35.82</time>
   <time name="total">   36.40   36.50</time>
   <energy>
    <i name="e_fr_energy">   -173.17250042 </i>
    <i name="e_wo_entrp">   -172.85454426 </i>
    <i name="e_0_energy">   -173.01352234 </i>
   </energy>
  </scstep>
  <scstep>
   <time name="dav">   30.92   30.99</time>
   <time name="total">   31.58   31.67</time>
   <energy>
    <i name="e_fr_energy">   -173.17201984 </i>
    <i name="e_wo_entrp">   -172.85470634 </i>
    <i name="e_0_energy">   -173.01336309 </i>
   </energy>
  </scstep>
  <scstep>
   <time name="dav">   25.18   25.24</time>
   <time name="total">   25.85   25.91</time>
   <energy>
    <i name="e_fr_energy">   -173.17223816 </i>
    <i name="e_wo_entrp">   -172.85493107 </i>
    <i name="e_0_energy">   -173.01358462 </i>
   </energy>
  </scstep>
  <scstep>
   <time name="dav">   23.80   23.86</time>
   <time name="total">   24.47   24.53</time>
   <energy>
    <i name="e_fr_energy">   -173.17196899 </i>
    <i name="e_wo_entrp">   -172.85463958 </i>
    <i name="e_0_energy">   -173.01330428 </i>
   </energy>
  </scstep>
  <scstep>
   <time name="dav">   19.32   19.37</time>
   <time name="total">   19.36   19.41</time>
   <energy>
    <i name="alphaZ">     79.50378808 </i>
[...]
       <r>   -7.6913    1.0000 </r>
       <r>   -7.5978    1.0000 </r>
       <r>   -7.4174    1.0000 </r>
       <r>   -7.2873    1.0000 </r>
       <r>   -6.9773    1.0000 </r>
       <r>   -6.9553    1.0000 </r>
       <r>   -6.9487    1.0000 </r>
       <r>   -6.9377    1.0000 </r>
       <r>   -6.9302    1.0000 </r>
       <r>   -6.8978    1.0000 </r>
       <r>   -6.7018    1.0000 </r>
       <r>   -6.6615    1.0000 </r>
       <r>   -6.6300    1.0000 </r>
       <r>   -6.6130    1.0000 </r>
       <r>   -6.5275    1.0000 </r>
       <r>   -6.4937    1.0000 </r>
       <r>   -6.2815    1.0000 </r>
       <r>   -6.1939    1.0000 </r>
       <r>   -6.1444    1.0000 </r>
       <r>   -6.1232    1.0000 </r>
       <r>   -5.9337    1.0000 </r>
       <r>   -5.9295    1.0000 </r>
       <r>   -5.9075    1.0000 </r>
       <r>   -5.8083    1.0000 </r>
       <r>   -5.7682    1.0000 </r>
       <r>   -5.7552    1.0000 </r>
       <r>   -5.7545    1.0000 </r>
       <r>   -5.7149    1.0000 </r>
       <r>   -5.6487    1.0000 </r>
       <r>   -5.5885    1.0000 </r>
       <r>   -5.5523    1.0000 </r>
       <r>   -5.4530    1.0000 </r>
       <r>   -5.0940    1.0000 </r>
       <r>   -5.0350    1.0000 </r>
       <r>   -4.8718    1.0000 </r>
       <r>   -4.7714    1.0000 </r>
       <r>   -4.7405    1.0000 </r>
       <r>   -4.6494    1.0000 </r>
       <r>   -4.3994    1.0000 </r>
       <r>   -4.2582    1.0000 </r>
       <r>   -3.9908    1.0000 </r>
       <r>   -3.7487    1.0000 </r>
       <r>   -3.6854    1.0000 </r>
       <r>   -3.6136    1.0000 </r>
       <r>   -3.4966    1.0000 </r>
       <r>   -3.4388    1.0000 </r>
       <r>   -3.3073    0.9989 </r>
       <r>   -3.2934    0.9985 </r>
       <r>   -3.1039    0.9483 </r>
       <r>   -2.7127    0.1277 </r>
       <r>   -2.7031    0.1141 </r>
       <r>   -2.7011    0.1114 </r>
       <r>   -2.6832    0.0892 </r>
       <r>   -2.6429    0.0515 </r>
       <r>   -2.5984    0.0259 </r>
       <r>   -2.5782    0.0184 </r>
       <r>   -2.4698    0.0022 </r>
       <r>   -2.4666    0.0020 </r>
       <r>   -2.2883    0.0000 </r>
       <r>   -2.2761    0.0000 </r>
       <r>   -2.2645    0.0000 </r>
       <r>   -2.2340    0.0000 </r>
       <r>   -2.2134    0.0000 </r>
       <r>   -2.2082    0.0000 </r>
       <r>   -2.1717    0.0000 </r>
       <r>   -2.1522    0.0000 </r>
       <r>   -2.1407    0.0000 </r>
       <r>   -1.4216    0.0000 </r>
       <r>   -1.3516    0.0000 </r>
       <r>   -1.3227    0.0000 </r>
       <r>   -1.1249    0.0000 </r>
       <r>   -1.0186    0.0000 </r>
       <r>   -0.9979    0.0000 </r>
       <r>   -0.9322    0.0000 </r>
       <r>   -0.8084    0.0000 </r>
       <r>   -0.5770    0.0000 </r>
       <r>   -0.3373    0.0000 </r>
       <r>   -0.3082    0.0000 </r>
       <r>   -0.2892    0.0000 </r>
       <r>   -0.2105    0.0000 </r>
       <r>   -0.1117    0.0000 </r>
       <r>   -0.1023    0.0000 </r>
       <r>   -0.0985    0.0000 </r>
       <r>   -0.0478    0.0000 </r>
       <r>    0.0199    0.0000 </r>
       <r>    2.1740    0.0000 </r>
       <r>    2.3316    0.0000 </r>
       <r>    2.4482    0.0000 </r>
       <r>    2.6151    0.0000 </r>
       <r>    2.7049    0.0000 </r>
       <r>    2.9899    0.0000 </r>
       <r>    3.0005    0.0000 </r>
       <r>    3.0047    0.0000 </r>
       <r>    3.0539    0.0000 </r>
       <r>    3.1500    0.0000 </r>
       <r>    3.2047    0.0000 </r>
      </set>
      <set comment="kpoint 32">
       <r>  -17.7830    1.0000 </r>
       <r>  -17.3553    1.0000 </r>
       <r>  -17.3544    1.0000 </r>
       <r>  -16.7094    1.0000 </r>
       <r>  -16.4424    1.0000 </r>
       <r>  -16.4418    1.0000 </r>
       <r>  -16.2787    1.0000 </r>
       <r>  -16.2786    1.0000 </r>
       <r>  -15.8162    1.0000 </r>
       <r>  -15.8160    1.0000 </r>
       <r>  -15.7703    1.0000 </r>
       <r>  -15.7375    1.0000 </r>
       <r>  -15.7373    1.0000 </r>
       <r>  -15.5509    1.0000 </r>
       <r>  -15.5481    1.0000 </r>
       <r>  -15.5115    1.0000 </r>
       <r>  -15.5111    1.0000 </r>
       <r>  -15.4114    1.0000 </r>
       <r>   -9.5838    1.0000 </r>
       <r>   -9.5837    1.0000 </r>
       <r>   -9.4071    1.0000 </r>
       <r>   -8.6742    1.0000 </r>
       <r>   -8.5865    1.0000 </r>
       <r>   -8.5504    1.0000 </r>
       <r>   -8.5503    1.0000 </r>
       <r>   -8.4928    1.0000 </r>
       <r>   -8.4156    1.0000 </r>
       <r>   -8.3266    1.0000 </r>
       <r>   -8.3261    1.0000 </r>
       <r>   -8.2233    1.0000 </r>
       <r>   -8.2225    1.0000 </r>
       <r>   -8.0339    1.0000 </r>
       <r>   -8.0336    1.0000 </r>
       <r>   -7.4867    1.0000 </r>
       <r>   -7.4864    1.0000 </r>
       <r>   -7.1460    1.0000 </r>
       <r>   -7.1459    1.0000 </r>
       <r>   -7.0056    1.0000 </r>
       <r>   -6.9448    1.0000 </r>
       <r>   -6.9270    1.0000 </r>
       <r>   -6.9253    1.0000 </r>
       <r>   -6.9251    1.0000 </r>
       <r>   -6.7345    1.0000 </r>
       <r>   -6.6803    1.0000 </r>
       <r>   -6.5892    1.0000 </r>
       <r>   -6.4548    1.0000 </r>
       <r>   -6.4543    1.0000 </r>
       <r>   -6.3917    1.0000 </r>
       <r>   -6.3912    1.0000 </r>
       <r>   -6.2155    1.0000 </r>
       <r>   -6.2151    1.0000 </r>
       <r>   -6.1288    1.0000 </r>
       <r>   -6.0311    1.0000 </r>
       <r>   -6.0303    1.0000 </r>
       <r>   -5.9244    1.0000 </r>
       <r>   -5.8269    1.0000 </r>
       <r>   -5.7668    1.0000 </r>
       <r>   -5.7105    1.0000 </r>
       <r>   -5.7104    1.0000 </r>
       <r>   -5.7075    1.0000 </r>
       <r>   -5.7072    1.0000 </r>
       <r>   -5.3054    1.0000 </r>
       <r>   -5.3053    1.0000 </r>
       <r>   -5.1975    1.0000 </r>
       <r>   -5.1972    1.0000 </r>
       <r>   -5.0814    1.0000 </r>
       <r>   -5.0810    1.0000 </r>
       <r>   -5.0371    1.0000 </r>
       <r>   -4.6968    1.0000 </r>
       <r>   -4.5468    1.0000 </r>
       <r>   -4.5467    1.0000 </r>
       <r>   -4.3070    1.0000 </r>
       <r>   -3.7281    1.0000 </r>
       <r>   -3.7278    1.0000 </r>
       <r>   -3.6913    1.0000 </r>
       <r>   -3.6911    1.0000 </r>
       <r>   -3.6496    1.0000 </r>
       <r>   -3.3506    0.9996 </r>
       <r>   -3.3502    0.9996 </r>
       <r>   -3.3194    0.9992 </r>
       <r>   -3.0092    0.8313 </r>
       <r>   -2.7517    0.1945 </r>
       <r>   -2.7200    0.1388 </r>
       <r>   -2.7198    0.1386 </r>
       <r>   -2.6600    0.0656 </r>
       <r>   -2.6596    0.0652 </r>
       <r>   -2.5745    0.0173 </r>
       <r>   -2.4733    0.0023 </r>
       <r>   -2.4732    0.0023 </r>
       <r>   -2.4466    0.0013 </r>
       <r>   -2.2908    0.0000 </r>
       <r>   -2.2902    0.0000 </r>
       <r>   -2.2842    0.0000 </r>
       <r>   -2.2699    0.0000 </r>
       <r>   -2.2140    0.0000 </r>
       <r>   -2.2136    0.0000 </r>
       <r>   -2.1983    0.0000 </r>
       <r>   -2.1727    0.0000 </r>
       <r>   -2.1721    0.0000 </r>
       <r>   -1.4917    0.0000 </r>
       <r>   -1.3811    0.0000 </r>
       <r>   -1.3809    0.0000 </r>
       <r>   -1.0813    0.0000 </r>
       <r>   -0.9456    0.0000 </r>
       <r>   -0.9453    0.0000 </r>
       <r>   -0.6747    0.0000 </r>
       <r>   -0.6075    0.0000 </r>
       <r>   -0.6072    0.0000 </r>
       <r>   -0.4992    0.0000 </r>
       <r>   -0.4988    0.0000 </r>
       <r>   -0.2868    0.0000 </r>
       <r>   -0.1807    0.0000 </r>
       <r>   -0.1806    0.0000 </r>
       <r>   -0.1358    0.0000 </r>
       <r>   -0.1103    0.0000 </r>
       <r>   -0.0125    0.0000 </r>
       <r>   -0.0122    0.0000 </r>
       <r>    2.1398    0.0000 </r>
       <r>    2.2957    0.0000 </r>
       <r>    2.6680    0.0000 </r>
       <r>    2.6867    0.0000 </r>
       <r>    2.6868    0.0000 </r>
       <r>    2.8557    0.0000 </r>
       <r>    2.8559    0.0000 </r>
       <r>    3.0175    0.0000 </r>
       <r>    3.1350    0.0000 </r>
       <r>    3.1351    0.0000 </r>
       <r>    3.2589    0.0000 </r>
      </set>
      <set comment="kpoint 33">
       <r>  -17.7554    1.0000 </r>
       <r>  -17.5386    1.0000 </r>
       <r>  -17.1273    1.0000 </r>
       <r>  -16.6920    1.0000 </r>
       <r>  -16.5756    1.0000 </r>
       <r>  -16.5558    1.0000 </r>
       <r>  -16.3038    1.0000 </r>
       <r>  -15.9960    1.0000 </r>
       <r>  -15.9813    1.0000 </r>
       <r>  -15.7672    1.0000 </r>
       <r>  -15.7480    1.0000 </r>
       <r>  -15.7299    1.0000 </r>
       <r>  -15.6638    1.0000 </r>
       <r>  -15.6032    1.0000 </r>
       <r>  -15.5451    1.0000 </r>
       <r>  -15.5245    1.0000 </r>
       <r>  -15.5010    1.0000 </r>
       <r>  -15.4465    1.0000 </r>
       <r>   -9.7319    1.0000 </r>
       <r>   -9.3518    1.0000 </r>
       <r>   -9.3166    1.0000 </r>
       <r>   -8.7636    1.0000 </r>
       <r>   -8.6921    1.0000 </r>
       <r>   -8.6449    1.0000 </r>
       <r>   -8.6037    1.0000 </r>
       <r>   -8.4749    1.0000 </r>
       <r>   -8.4705    1.0000 </r>
       <r>   -8.4158    1.0000 </r>
       <r>   -8.3769    1.0000 </r>
       <r>   -8.2792    1.0000 </r>
       <r>   -8.0929    1.0000 </r>
       <r>   -7.9863    1.0000 </r>
       <r>   -7.6913    1.0000 </r>
       <r>   -7.5976    1.0000 </r>
       <r>   -7.4175    1.0000 </r>
       <r>   -7.2872    1.0000 </r>
       <r>   -6.9772    1.0000 </r>
       <r>   -6.9552    1.0000 </r>
       <r>   -6.9488    1.0000 </r>
       <r>   -6.9376    1.0000 </r>
       <r>   -6.9302    1.0000 </r>
       <r>   -6.8977    1.0000 </r>
       <r>   -6.7017    1.0000 </r>
       <r>   -6.6615    1.0000 </r>
       <r>   -6.6300    1.0000 </r>
       <r>   -6.6130    1.0000 </r>
       <r>   -6.5271    1.0000 </r>
       <r>   -6.4936    1.0000 </r>
       <r>   -6.2821    1.0000 </r>
       <r>   -6.1939    1.0000 </r>
       <r>   -6.1444    1.0000 </r>
       <r>   -6.1231    1.0000 </r>
       <r>   -5.9340    1.0000 </r>
       <r>   -5.9296    1.0000 </r>
       <r>   -5.9077    1.0000 </r>
       <r>   -5.8083    1.0000 </r>
       <r>   -5.7682    1.0000 </r>
       <r>   -5.7552    1.0000 </r>
       <r>   -5.7545    1.0000 </r>
       <r>   -5.7145    1.0000 </r>
       <r>   -5.6485    1.0000 </r>
       <r>   -5.5883    1.0000 </r>
       <r>   -5.5522    1.0000 </r>
       <r>   -5.4529    1.0000 </r>
       <r>   -5.0937    1.0000 </r>
       <r>   -5.0351    1.0000 </r>
       <r>   -4.8717    1.0000 </r>
       <r>   -4.7712    1.0000 </r>
       <r>   -4.7408    1.0000 </r>
       <r>   -4.6495    1.0000 </r>
       <r>   -4.3996    1.0000 </r>
       <r>   -4.2586    1.0000 </r>
       <r>   -3.9912    1.0000 </r>
       <r>   -3.7486    1.0000 </r>
       <r>   -3.6853    1.0000 </r>
       <r>   -3.6136    1.0000 </r>
       <r>   -3.4965    1.0000 </r>
       <r>   -3.4388    1.0000 </r>
       <r>   -3.3073    0.9989 </r>
       <r>   -3.2934    0.9985 </r>
       <r>   -3.1039    0.9483 </r>
       <r>   -2.7126    0.1276 </r>
       <r>   -2.7031    0.1141 </r>
       <r>   -2.7012    0.1115 </r>
       <r>   -2.6831    0.0891 </r>
       <r>   -2.6429    0.0515 </r>
       <r>   -2.5984    0.0259 </r>
       <r>   -2.5781    0.0184 </r>
       <r>   -2.4698    0.0022 </r>
       <r>   -2.4665    0.0020 </r>
       <r>   -2.2883    0.0000 </r>
       <r>   -2.2761    0.0000 </r>
       <r>   -2.2643    0.0000 </r>
       <r>   -2.2338    0.0000 </r>
       <r>   -2.2134    0.0000 </r>
       <r>   -2.2084    0.0000 </r>
       <r>   -2.1721    0.0000 </r>
       <r>   -2.1526    0.0000 </r>
       <r>   -2.1406    0.0000 </r>
       <r>   -1.4216    0.0000 </r>
       <r>   -1.3516    0.0000 </r>
       <r>   -1.3228    0.0000 </r>
       <r>   -1.1250    0.0000 </r>
       <r>   -1.0186    0.0000 </r>
       <r>   -0.9980    0.0000 </r>
       <r>   -0.9321    0.0000 </r>
       <r>   -0.8083    0.0000 </r>
       <r>   -0.5771    0.0000 </r>
       <r>   -0.3375    0.0000 </r>
       <r>   -0.3084    0.0000 </r>
       <r>   -0.2893    0.0000 </r>
       <r>   -0.2107    0.0000 </r>
       <r>   -0.1117    0.0000 </r>
       <r>   -0.1022    0.0000 </r>
       <r>   -0.0984    0.0000 </r>
       <r>   -0.0478    0.0000 </r>
       <r>    0.0199    0.0000 </r>
       <r>    2.1741    0.0000 </r>
       <r>    2.3317    0.0000 </r>
       <r>    2.4482    0.0000 </r>
       <r>    2.6152    0.0000 </r>
       <r>    2.7050    0.0000 </r>
       <r>    2.9898    0.0000 </r>
       <r>    3.0006    0.0000 </r>
       <r>    3.0046    0.0000 </r>
       <r>    3.0539    0.0000 </r>
       <r>    3.1499    0.0000 </r>
       <r>    3.2047    0.0000 </r>
      </set>
      <set comment="kpoint 34">
       <r>  -17.6736    1.0000 </r>
       <r>  -17.6730    1.0000 </r>
       <r>  -16.8639    1.0000 </r>
       <r>  -16.8638    1.0000 </r>
       <r>  -16.6404    1.0000 </r>
       <r>  -16.6398    1.0000 </r>
       <r>  -16.1474    1.0000 </r>
       <r>  -16.1474    1.0000 </r>
       <r>  -15.7591    1.0000 </r>
       <r>  -15.7590    1.0000 </r>
       <r>  -15.7589    1.0000 </r>
       <r>  -15.7588    1.0000 </r>
       <r>  -15.7273    1.0000 </r>
       <r>  -15.5370    1.0000 </r>
       <r>  -15.5368    1.0000 </r>
       <r>  -15.5366    1.0000 </r>
       <r>  -15.5365    1.0000 </r>
       <r>  -15.4972    1.0000 </r>
       <r>   -9.7828    1.0000 </r>
       <r>   -9.0622    1.0000 </r>
       <r>   -9.0620    1.0000 </r>
       <r>   -9.0615    1.0000 </r>
       <r>   -9.0613    1.0000 </r>
       <r>   -8.6227    1.0000 </r>
       <r>   -8.5584    1.0000 </r>
       <r>   -8.5577    1.0000 </r>
       <r>   -8.4025    1.0000 </r>
       <r>   -8.4025    1.0000 </r>
       <r>   -8.4022    1.0000 </r>
       <r>   -8.4021    1.0000 </r>
       <r>   -7.8942    1.0000 </r>
       <r>   -7.8942    1.0000 </r>
       <r>   -7.7160    1.0000 </r>
       <r>   -7.7159    1.0000 </r>
       <r>   -7.1090    1.0000 </r>
       <r>   -7.1086    1.0000 </r>
       <r>   -7.0954    1.0000 </r>
       <r>   -7.0953    1.0000 </r>
       <r>   -6.9576    1.0000 </r>
       <r>   -6.8960    1.0000 </r>
       <r>   -6.8958    1.0000 </r>
       <r>   -6.8957    1.0000 </r>
       <r>   -6.8955    1.0000 </r>
       <r>   -6.6432    1.0000 </r>
       <r>   -6.6429    1.0000 </r>
       <r>   -6.6427    1.0000 </r>
       <r>   -6.6424    1.0000 </r>
       <r>   -6.2386    1.0000 </r>
       <r>   -6.1654    1.0000 </r>
       <r>   -6.1653    1.0000 </r>
       <r>   -6.1652    1.0000 </r>
       <r>   -6.1650    1.0000 </r>
       <r>   -5.8829    1.0000 </r>
       <r>   -5.8822    1.0000 </r>
       <r>   -5.8592    1.0000 </r>
       <r>   -5.8591    1.0000 </r>
       <r>   -5.8301    1.0000 </r>
       <r>   -5.8300    1.0000 </r>
       <r>   -5.7254    1.0000 </r>
       <r>   -5.7252    1.0000 </r>
       <r>   -5.7251    1.0000 </r>
       <r>   -5.7249    1.0000 </r>
       <r>   -5.7220    1.0000 </r>
       <r>   -5.3151    1.0000 </r>
       <r>   -5.3148    1.0000 </r>
       <r>   -4.8240    1.0000 </r>
       <r>   -4.8236    1.0000 </r>
       <r>   -4.8037    1.0000 </r>
       <r>   -4.8037    1.0000 </r>
       <r>   -4.4222    1.0000 </r>
       <r>   -4.2570    1.0000 </r>
       <r>   -4.2567    1.0000 </r>
       <r>   -4.2369    1.0000 </r>
       <r>   -3.7486    1.0000 </r>
       <r>   -3.7482    1.0000 </r>
       <r>   -3.5298    1.0000 </r>
       <r>   -3.5295    1.0000 </r>
       <r>   -3.2872    0.9983 </r>
       <r>   -3.2870    0.9983 </r>
       <r>   -3.2861    0.9982 </r>
       <r>   -3.2858    0.9982 </r>
       <r>   -2.6938    0.1020 </r>
       <r>   -2.6724    0.0775 </r>
       <r>   -2.6722    0.0773 </r>
       <r>   -2.6533    0.0597 </r>
       <r>   -2.6531    0.0596 </r>
       <r>   -2.6527    0.0593 </r>
       <r>   -2.6522    0.0588 </r>
       <r>   -2.4824    0.0028 </r>
       <r>   -2.4813    0.0028 </r>
       <r>   -2.2518    0.0000 </r>
       <r>   -2.2514    0.0000 </r>
       <r>   -2.2511    0.0000 </r>
       <r>   -2.2508    0.0000 </r>
       <r>   -2.2383    0.0000 </r>
       <r>   -2.2380    0.0000 </r>
       <r>   -2.1285    0.0000 </r>
       <r>   -2.1065    0.0000 </r>
       <r>   -2.1058    0.0000 </r>
       <r>   -1.2234    0.0000 </r>
       <r>   -1.2233    0.0000 </r>
       <r>   -1.2230    0.0000 </r>
       <r>   -1.2228    0.0000 </r>
       <r>   -1.2061    0.0000 </r>
       <r>   -1.2060    0.0000 </r>
       <r>   -0.9843    0.0000 </r>
       <r>   -0.9835    0.0000 </r>
       <r>   -0.4561    0.0000 </r>
       <r>   -0.4560    0.0000 </r>
       <r>   -0.2314    0.0000 </r>
       <r>   -0.1759    0.0000 </r>
       <r>   -0.1756    0.0000 </r>
       <r>   -0.0802    0.0000 </r>
       <r>   -0.0801    0.0000 </r>
       <r>   -0.0798    0.0000 </r>
       <r>   -0.0797    0.0000 </r>
       <r>    0.0368    0.0000 </r>
       <r>    2.2769    0.0000 </r>
       <r>    2.2769    0.0000 </r>
       <r>    2.4388    0.0000 </r>
       <r>    2.4389    0.0000 </r>
       <r>    2.8158    0.0000 </r>
       <r>    2.8159    0.0000 </r>
       <r>    2.9610    0.0000 </r>
       <r>    3.0804    0.0000 </r>
       <r>    3.1629    0.0000 </r>
       <r>    3.1630    0.0000 </r>
       <r>    3.3517    0.0000 </r>
      </set>
     </set>
    </set>
   </array>
  </eigenvalues>
  <separator name="orbital magnetization" >
   <v name="MAGDIPOLOUT">      0.00000000      0.00000000      0.00000000</v>
  </separator>
 </calculation>
 <structure name="finalpos" >
  <crystal>
   <varray name="basis" >
    <v>       7.94241624       4.58580576       0.00000000 </v>
    <v>      -7.94241422       4.58580269       0.00000000 </v>
    <v>       0.00000000       0.00000000      30.00000000 </v>
   </varray>
   <i name="volume">   2185.34167975 </i>
   <varray name="rec_basis" >
    <v>       0.06295312       0.10903212       0.00000000 </v>
    <v>      -0.06295316       0.10903214       0.00000000 </v>
    <v>       0.00000000       0.00000000       0.03333333 </v>
   </varray>
  </crystal>
  <varray name="positions" >
   <v>      -0.00004398      -0.00005064      -0.00000269 </v>
   <v>       0.99991183       0.33324422       0.00000042 </v>
   <v>      -0.00008571       0.66660532       0.00000101 </v>
   <v>       0.33329379      -0.00000927       0.00000004 </v>
   <v>       0.33328507       0.33323665       0.00000095 </v>
   <v>       0.33328000       0.66661154       0.00000182 </v>
   <v>       0.66661227      -0.00002824      -0.00000176 </v>
   <v>       0.66657676       0.33324840       0.00000120 </v>
   <v>       0.66661349       0.66658885      -0.00000066 </v>
   <v>       0.11106204       0.22215747       0.95077493 </v>
   <v>       0.22215931       0.11105498       0.04922668 </v>
   <v>       0.11104323       0.55548175       0.95077484 </v>
   <v>       0.22216389       0.44437020       0.04921908 </v>
   <v>       0.11105033       0.88882197       0.95077465 </v>
   <v>       0.22215635       0.77772868       0.04922273 </v>
   <v>       0.44438759       0.22216269       0.95077646 </v>
   <v>       0.55548329       0.11105343       0.04922470 </v>
   <v>       0.44438332       0.55547254       0.95078296 </v>
   <v>       0.55548170       0.44437156       0.04921865 </v>
   <v>       0.44438234       0.88882540       0.95077774 </v>
   <v>       0.55549741       0.77771557       0.04921944 </v>
   <v>       0.77769848       0.22215277       0.95077303 </v>
   <v>       0.88881158       0.11103432       0.04922819 </v>
   <v>       0.77769752       0.55546641       0.95077808 </v>
   <v>       0.88879555       0.44437130       0.04922261 </v>
   <v>       0.77770729       0.88881283       0.95077885 </v>
   <v>       0.88880971       0.77771377       0.04922594 </v>
  </varray>
 </structure>
</modeling>
