unknown system                          
           1
     8.157627    4.724436    0.000000
    -8.157627    4.724437    0.000000
     0.000000    0.000000   30.000000
   Cr   S 
   9  18
Direct configuration=     1
   0.00000000  0.00000000  0.00000000
   1.00000000  0.33333334  0.00000000
   0.00000000  0.66666669  0.00000000
   0.33333334  0.00000000  0.00000000
   0.33333334  0.33333334  0.00000000
   0.33333334  0.66666669  0.00000000
   0.66666669  0.00000000  0.00000000
   0.66666669  0.33333334  0.00000000
   0.66666669  0.66666669  0.00000000
   0.11068511  0.22244981  0.95539999
   0.22244981  0.11068511  0.04460000
   0.11068511  0.55578315  0.95539999
   0.22244981  0.44401845  0.04460000
   0.11068511  0.88911647  0.95539999
   0.22244981  0.77735180  0.04460000
   0.44401845  0.22244981  0.95539999
   0.55578315  0.11068511  0.04460000
   0.44401845  0.55578315  0.95539999
   0.55578315  0.44401845  0.04460000
   0.44401845  0.88911647  0.95539999
   0.55578315  0.77735180  0.04460000
   0.77735180  0.22244981  0.95539999
   0.88911647  0.11068511  0.04460000
   0.77735180  0.55578315  0.95539999
   0.88911647  0.44401845  0.04460000
   0.77735180  0.88911647  0.95539999
   0.88911647  0.77735180  0.04460000
unknown system                          
           1
     8.248102    4.766417    0.000000
    -8.248102    4.766418    0.000000
     0.000000    0.000000   30.000000
   Cr   S 
   9  18
Direct configuration=     2
   0.00001902  0.00002106 -0.00000032
   1.00001669  0.33334758 -0.00000011
   0.00001637  0.66668908 -0.00000017
   0.33335349  0.00002447  0.00000007
   0.33335258  0.33334982  0.00000017
   0.33335506  0.66668724 -0.00000028
   0.66669322  0.00002320 -0.00000001
   0.66668775  0.33335392  0.00000060
   0.66669222  0.66669038  0.00000005
   0.11081582  0.22228917  0.95520519
   0.22229042  0.11081356  0.04479428
   0.11081522  0.55562540  0.95520340
   0.22229162  0.44414955  0.04479706
   0.11082010  0.88896653  0.95520600
   0.22229346  0.77749078  0.04479682
   0.44415320  0.22229177  0.95520409
   0.55562724  0.11081817  0.04479434
   0.44415904  0.55562805  0.95520358
   0.55563232  0.44415659  0.04479466
   0.44415609  0.88896908  0.95520406
   0.55563570  0.77748863  0.04479589
   0.77748406  0.22229290  0.95520470
   0.88896187  0.11081588  0.04479422
   0.77748280  0.55562833  0.95520486
   0.88896030  0.44415203  0.04479568
   0.77748848  0.88896191  0.95520663
   0.88896030  0.77748936  0.04479445
unknown system                          
           1
     8.163064    4.713696    0.000000
    -8.163066    4.713698    0.000000
     0.000000    0.000000   30.000000
   Cr   S 
   9  18
Direct configuration=     3
   0.00000811  0.00000925 -0.00000071
   1.00000338  0.33333512 -0.00000006
   0.00000332  0.66667596 -0.00000012
   0.33334390  0.00001552  0.00000016
   0.33334273  0.33333641  0.00000016
   0.33334386  0.66667599 -0.00000009
   0.66667950  0.00001249 -0.00000005
   0.66667284  0.33333969  0.00000075
   0.66667832  0.66667525 -0.00000014
   0.11092798  0.22220527  0.95340582
   0.22220755  0.11092469  0.04659301
   0.11091588  0.55553632  0.95340505
   0.22220461  0.44424845  0.04659475
   0.11092673  0.88887351  0.95340588
   0.22220105  0.77759359  0.04659447
   0.44425178  0.22220219  0.95340672
   0.55553754  0.11091825  0.04659215
   0.44425883  0.55552987  0.95340649
   0.55553595  0.44425785  0.04659211
   0.44426111  0.88888286  0.95340614
   0.55554751  0.77759400  0.04659428
   0.77758419  0.22219918  0.95340573
   0.88886566  0.11091834  0.04659500
   0.77758770  0.55553816  0.95340601
   0.88887104  0.44425794  0.04659444
   0.77758594  0.88887167  0.95340703
   0.88886746  0.77758663  0.04659490
unknown system                          
           1
     8.001952    4.618151    0.000000
    -8.001950    4.618148    0.000000
     0.000000    0.000000   30.000000
   Cr   S 
   9  18
Direct configuration=     4
   0.00000059 -0.00000027 -0.00000064
   0.99999614  0.33332802  0.00000020
  -0.00000139  0.66667307 -0.00000018
   0.33333410  0.00000582  0.00000015
   0.33333449  0.33332778  0.00000006
   0.33333685  0.66667176 -0.00000009
   0.66667249  0.00000483  0.00000014
   0.66666662  0.33333258  0.00000068
   0.66667519  0.66667164 -0.00000035
   0.11096309  0.22216673  0.95282261
   0.22216957  0.11095806  0.04717629
   0.11095814  0.55550865  0.95282282
   0.22217188  0.44429272  0.04717807
   0.11096341  0.88884168  0.95282379
   0.22216948  0.77762976  0.04717625
   0.44429194  0.22216782  0.95282222
   0.55550444  0.11095692  0.04717658
   0.44429744  0.55550270  0.95282317
   0.55550661  0.44429732  0.04717668
   0.44429516  0.88884576  0.95282342
   0.55550981  0.77763037  0.04717739
   0.77762263  0.22216881  0.95282129
   0.88883734  0.11095663  0.04717852
   0.77762833  0.55550805  0.95282190
   0.88884098  0.44429821  0.04717829
   0.77762966  0.88883952  0.95282376
   0.88883946  0.77762950  0.04717687
unknown system                          
           1
     7.936218    4.581923    0.000000
    -7.936215    4.581918    0.000000
     0.000000    0.000000   30.000000
   Cr   S 
   9  18
Direct configuration=     5
  -0.00003074 -0.00002502 -0.00000144
   0.99993674  0.33327522  0.00000128
  -0.00004622  0.66662660 -0.00000092
   0.33331664 -0.00000899 -0.00000038
   0.33329665  0.33327092  0.00000107
   0.33329940  0.66664090  0.00000060
   0.66663974 -0.00000601 -0.00000014
   0.66662237  0.33327437  0.00000096
   0.66663674  0.66663079 -0.00000077
   0.11104686  0.22214274  0.95127380
   0.22215649  0.11105068  0.04872576
   0.11101602  0.55548025  0.95127469
   0.22216202  0.44435258  0.04872215
   0.11102415  0.88880387  0.95127321
   0.22213539  0.77769942  0.04872489
   0.44438140  0.22216107  0.95128345
   0.55549329  0.11104535  0.04871324
   0.44435799  0.55545350  0.95127972
   0.55547006  0.44433673  0.04871794
   0.44438340  0.88883133  0.95127926
   0.55549052  0.77771439  0.04872134
   0.77766372  0.22213183  0.95128325
   0.88878703  0.11100934  0.04872294
   0.77769076  0.55544297  0.95128048
   0.88877785  0.44435864  0.04871608
   0.77769358  0.88882897  0.95127701
   0.88881263  0.77769201  0.04873045
unknown system                          
           1
     7.942416    4.585806    0.000000
    -7.942414    4.585803    0.000000
     0.000000    0.000000   30.000000
   Cr   S 
   9  18
Direct configuration=     6
  -0.00004411 -0.00004720 -0.00000297
   0.99991305  0.33324840  0.00000033
  -0.00008128  0.66660081 -0.00000002
   0.33328725 -0.00001906 -0.00000078
   0.33327364  0.33323561  0.00000137
   0.33326919  0.66660877  0.00000231
   0.66661914 -0.00002190 -0.00000149
   0.66659107  0.33325195  0.00000066
   0.66661857  0.66659466  0.00000008
   0.11106087  0.22215575  0.95070960
   0.22215736  0.11106057  0.04929258
   0.11104345  0.55547205  0.95070860
   0.22215514  0.44436992  0.04928482
   0.11105711  0.88882253  0.95070761
   0.22215515  0.77773268  0.04928985
   0.44439372  0.22215562  0.95071314
   0.55548170  0.11106146  0.04928798
   0.44437812  0.55546548  0.95071347
   0.55547486  0.44436277  0.04928566
   0.44438532  0.88882593  0.95071060
   0.55548949  0.77772070  0.04928858
   0.77770297  0.22215198  0.95071026
   0.88881258  0.11104503  0.04929451
   0.77770250  0.55545114  0.95071198
   0.88878951  0.44436729  0.04928615
   0.77771550  0.88882131  0.95070875
   0.88881260  0.77772020  0.04929624
unknown system                          
           1
     7.942416    4.585806    0.000000
    -7.942414    4.585803    0.000000
     0.000000    0.000000   30.000000
   Cr   S 
   9  18
Direct configuration=     7
  -0.00004398 -0.00005064 -0.00000269
   0.99991183  0.33324422  0.00000042
  -0.00008571  0.66660532  0.00000101
   0.33329379 -0.00000927  0.00000004
   0.33328507  0.33323665  0.00000095
   0.33328000  0.66661154  0.00000182
   0.66661227 -0.00002824 -0.00000176
   0.66657676  0.33324840  0.00000120
   0.66661349  0.66658885 -0.00000066
   0.11106204  0.22215747  0.95077493
   0.22215931  0.11105498  0.04922668
   0.11104323  0.55548175  0.95077484
   0.22216389  0.44437020  0.04921908
   0.11105033  0.88882197  0.95077465
   0.22215635  0.77772868  0.04922273
   0.44438759  0.22216269  0.95077646
   0.55548329  0.11105343  0.04922470
   0.44438332  0.55547254  0.95078296
   0.55548170  0.44437156  0.04921865
   0.44438234  0.88882540  0.95077774
   0.55549741  0.77771557  0.04921944
   0.77769848  0.22215277  0.95077303
   0.88881158  0.11103432  0.04922819
   0.77769752  0.55546641  0.95077808
   0.88879555  0.44437130  0.04922261
   0.77770729  0.88881283  0.95077885
   0.88880971  0.77771377  0.04922594
